LAMMPS (4 May 2022)
  using 1 OpenMP thread(s) per MPI task
variable                    T equal 300
variable                    R equal 984523

units		                metal
dimension                   3
boundary	                p p p
atom_style	                atomic

lattice                     bcc 3.189
Lattice spacing in x,y,z = 3.189 3.189 3.189
region                      box block 0 30 0 30 0 30
create_box                  1 box
Created orthogonal box = (0 0 0) to (95.67 95.67 95.67)
  3 by 4 by 4 MPI processor grid
create_atoms                1 box
Created 54000 atoms
  using lattice units in orthogonal box = (0 0 0) to (95.67 95.67 95.67)
  create_atoms CPU = 0.006 seconds

pair_style	                tensormd
pair_coeff	                * * ../../../W_k32_snapshot.npz W interp 0.05 1
Use interpolation: dr = 0.0500, algo = batch

mass                        1 183.8

neighbor                    1.0 bin
neigh_modify                every 1 delay 0 check yes

thermo                      20
thermo_style                custom step cpu temp ke pe etotal press vol pxx pyy pzz

velocity                    all create $T $R dist gaussian
velocity                    all create 300 $R dist gaussian
velocity                    all create 300 984523 dist gaussian
fix                         1 all nvt temp $T $T 0.1
fix                         1 all nvt temp 300 $T 0.1
fix                         1 all nvt temp 300 300 0.1
# dump                        1 all custom 1 dump.fnn id type x y z fx fy fz

run                         1000
Neighbor list info ...
  update every 1 steps, delay 0 steps, check yes
  max neighbors/atom: 2000, page size: 100000
  master list distance cutoff = 7
  ghost atom cutoff = 7
  binsize = 3.5, bins = 28 28 28
  1 neighbor lists, perpetual/occasional/extra = 1 0 0
  (1) pair tensormd, perpetual
      attributes: full, newton on
      pair build: full/bin/atomonly
      stencil: full/bin/3d
      bin: standard
Per MPI rank memory allocation (min/avg/max) = 133.6 | 134.2 | 134.8 Mbytes
   Step          CPU            Temp          KinEng         PotEng         TotEng         Press          Volume          Pxx            Pyy            Pzz      
         0   0              300            2093.9756     -690388.73     -688294.75      2948.4724      875643.49      2959.4644      2935.3964      2950.5564    
        20   2.1445592      211.22448      1474.3297     -689765.48     -688291.15      5736.1444      875643.49      5750.0046      5727.6177      5730.8108    
        40   4.2931798      63.273978      441.64722     -688720.2      -688278.55      12039.477      875643.49      12060.854      12035.899      12021.679    
        60   6.4410126      47.359211      330.56343     -688602.41     -688271.85      12148.792      875643.49      12171.701      12147.518      12127.156    
        80   8.5877742      151.29959      1056.0588     -689310.15     -688254.09      7393.2765      875643.49      7406.462       7386.3315      7387.0358    
       100   10.73559       217.68866      1519.4491     -689741.6      -688222.15      5089.6586      875643.49      5100.941       5078.927       5089.1078    
       120   12.88493       192.19128      1341.4795     -689531.09     -688189.61      7207.1303      875643.49      7217.9175      7200.6188      7202.8546    
       140   15.032881      151.35247      1056.4279     -689216.48     -688160.05      9344.0528      875643.49      9357.9278      9338.6908      9335.5399    
       160   17.177966      147.19703      1027.4233     -689159.07     -688131.65      9249.3947      875643.49      9254.4441      9247.0174      9246.7226    
       180   19.322567      152.02366      1061.1128     -689162.77     -688101.66      8933.1145      875643.49      8922.4163      8927.1649      8949.7623    
       200   21.470734      151.16841      1055.1432     -689125.99     -688070.85      9397.9364      875643.49      9378.8736      9397.6539      9417.2816    
       220   23.61833       171.43698      1196.6161     -689234.73     -688038.11      9032.2302      875643.49      9022.6703      9029.6324      9044.388     
       240   25.762472      202.67413      1414.6489     -689415.73     -688001.08      7841.6906      875643.49      7850.6311      7837.9513      7836.4894    
       260   27.907186      194.70008      1358.9907     -689322.05     -687963.05      8264.5689      875643.49      8278.9732      8263.0104      8251.7231    
       280   30.053795      154.08831      1075.5238     -689003.81     -687928.29      10338.901      875643.49      10351.15       10332.186      10333.366    
       300   32.208604      147.54076      1029.8225     -688926        -687896.17      11039.55       875643.49      11038.429      11027.506      11052.715    
       320   34.358483      190.38399      1328.8648     -689188.5      -687859.64      9444.063       875643.49      9432.3124      9438.1887      9461.688     
       340   36.506179      216.19939      1509.0541     -689327.27     -687818.22      8463.7993      875643.49      8456.5382      8468.8797      8465.98      
       360   38.652418      190.61979      1330.5106     -689108.89     -687778.38      9826.8913      875643.49      9829.7201      9826.2672      9824.6867    
       380   40.806504      166.3251       1160.9356     -688902.34     -687741.4       11220.631      875643.49      11234.252      11212.712      11214.929    
       400   42.953071      186.9841       1305.1338     -689008.27     -687703.14      10674.714      875643.49      10694.039      10658.533      10671.57     
       420   45.100693      216.34466      1510.0681     -689170.76     -687660.69      9688.8013      875643.49      9696.4475      9688.1562      9681.8001    
       440   47.251615      209.14566      1459.8197     -689078.07     -687618.25      10271.561      875643.49      10264.845      10287.799      10262.04     
       460   49.397685      187.45084      1308.3916     -688886.31     -687577.92      11489.008      875643.49      11487.763      11501.302      11477.959    
       480   51.545041      193.37045      1349.71       -688887.08     -687537.37      11513.101      875643.49      11533.63       11506.742      11498.932    
       500   53.697875      216.67472      1512.3719     -689006.42     -687494.04      10805.943      875643.49      10844.697      10793.645      10779.487    
       520   55.844495      222.56752      1553.5031     -689003.41     -687449.9       10859.779      875643.49      10888.106      10860.602      10830.628    
       540   57.994177      213.09104      1487.3581     -688894.23     -687406.87      11620.673      875643.49      11622.628      11636.234      11603.156    
       560   60.144577      212.82253      1485.484      -688849.32     -687363.83      11989.58       875643.49      11979.913      12008.886      11979.941    
       580   62.297392      221.88         1548.7043     -688868.38     -687319.67      11897.89       875643.49      11909.938      11900.362      11883.369    
       600   64.445071      224.23137      1565.1167     -688840.34     -687275.23      12033.507      875643.49      12075.441      12018.205      12006.874    
       620   66.592264      222.80969      1555.1935     -688786.28     -687231.09      12367.858      875643.49      12415          12358.78       12329.796    
       640   68.741313      230.42279      1608.3323     -688794.76     -687186.42      12454.433      875643.49      12484.631      12467.871      12410.796    
       660   70.887499      241.42361      1685.1171     -688826.23     -687141.11      12379.393      875643.49      12393.571      12408.707      12335.9      
       680   73.03455       241.8236       1687.9091     -688784.33     -687096.42      12601.927      875643.49      12618.167      12623.573      12564.041    
       700   75.183815      235.27888      1642.2274     -688694.72     -687052.49      13101.884      875643.49      13130.757      13111.526      13063.37     
       720   77.332115      236.06955      1647.7463     -688655.9      -687008.16      13427.702      875643.49      13448.995      13426.492      13407.621    
       740   79.479848      245.76165      1715.3963     -688678.36     -686962.96      13430.33       875643.49      13441.638      13428.581      13420.77     
       760   81.628051      254.0475       1773.2309     -688691.11     -686917.88      13355.363      875643.49      13347.017      13360.197      13358.874    
       780   83.774847      256.65458      1791.428      -688665.24     -686873.82      13433.877      875643.49      13428.163      13440.516      13432.952    
       800   85.923517      257.73783      1798.9891     -688629.47     -686830.48      13723.446      875643.49      13725.439      13742.803      13702.096    
       820   88.071594      258.60085      1805.0129     -688592.43     -686787.42      14126.279      875643.49      14126.489      14151.411      14100.938    
       840   90.220491      258.44052      1803.8938     -688548.44     -686744.55      14463.498      875643.49      14463.452      14470.502      14456.541    
       860   92.369008      261.52511      1825.424      -688527.03     -686701.61      14499.58       875643.49      14497.894      14491.688      14509.16     
       880   94.517253      270.47311      1887.8803     -688546.61     -686658.73      14379.8        875643.49      14381.978      14383.839      14373.583    
       900   96.663229      278.21651      1941.9286     -688559.08     -686617.15      14437.627      875643.49      14438.124      14458.356      14416.402    
       920   98.808796      277.38137      1936.0994     -688513.97     -686577.87      14821.523      875643.49      14818.975      14850.537      14795.058    
       940   100.95719      273.18294      1906.7947     -688446.54     -686539.74      15183.731      875643.49      15179.069      15185.626      15186.497    
       960   103.10454      275.13727      1920.4357     -688421.49     -686501.05      15294.807      875643.49      15301.912      15270.521      15311.988    
       980   105.25021      282.26386      1970.1787     -688432.32     -686462.14      15316.902      875643.49      15324.789      15299.603      15326.312    
      1000   107.39906      286.71321      2001.2349     -688425.99     -686424.76      15453.321      875643.49      15445.056      15464.526      15450.381    
Loop time of 107.399 on 48 procs for 1000 steps with 54000 atoms

Performance: 0.804 ns/day, 29.833 hours/ns, 9.311 timesteps/s
99.3% CPU use with 48 MPI tasks x 1 OpenMP threads

MPI task timing breakdown:
Section |  min time  |  avg time  |  max time  |%varavg| %total
---------------------------------------------------------------
Pair    | 103.94     | 105.81     | 107.06     |   6.1 | 98.52
Neigh   | 0          | 0          | 0          |   0.0 |  0.00
Comm    | 0.2334     | 1.3908     | 3.1899     |  55.0 |  1.29
Output  | 0.0035506  | 0.0036159  | 0.0049562  |   0.3 |  0.00
Modify  | 0.070957   | 0.16993    | 0.46462    |  26.8 |  0.16
Other   |            | 0.02663    |            |       |  0.02

Nlocal:           1125 ave        1130 max        1120 min
Histogram: 24 0 0 0 0 0 0 0 0 24
Nghost:           3051 ave        3056 max        3046 min
Histogram: 24 0 0 0 0 0 0 0 0 24
Neighs:              0 ave           0 max           0 min
Histogram: 48 0 0 0 0 0 0 0 0 0
FullNghs:        99000 ave       99440 max       98560 min
Histogram: 24 0 0 0 0 0 0 0 0 24

Total # of neighbors = 4752000
Ave neighs/atom = 88
Neighbor list builds = 0
Dangerous builds = 0


--------------------------------------------------------------------------

                               FLOPs Report

--------------------------------------------------------------------------
         alloc:     0.0000 GFlops,       0.0002 secs,       0.0000 GFLOP/s
         setup:     0.0000 GFlops,       8.4039 secs,       0.0000 GFLOP/s
   fnn->interp:    60.1920 GFlops,      22.1464 secs,       2.7179 GFLOP/s
             P:   126.7200 GFlops,      11.2394 secs,      11.2746 GFLOP/s
             Q:     7.9200 GFlops,       1.9957 secs,       3.9686 GFLOP/s
             G:     0.0360 GFlops,       0.3567 secs,       0.1009 GFLOP/s
   nn->compute:   223.6354 GFlops,      11.2436 secs,      19.8901 GFLOP/s
          dEdP:     7.9920 GFlops,       6.2133 secs,       1.2863 GFLOP/s
            UV:   253.4400 GFlops,      28.5798 secs,       8.8678 GFLOP/s
            F1:     6.6330 GFlops,       8.2136 secs,       0.8076 GFLOP/s
            F2:     4.2570 GFlops,       5.8896 secs,       0.7228 GFLOP/s
        forces:     1.1880 GFlops,       0.8731 secs,       1.3606 GFLOP/s
--------------------------------------------------------------------------
       Overall:   692.0134 GFlops,     105.1553 secs,       6.5809 GFLOP/s
--------------------------------------------------------------------------

Total wall time: 0:01:47
