LAMMPS (4 May 2022)
  using 1 OpenMP thread(s) per MPI task
variable                    T equal 300
variable                    R equal 984523

units		                metal
dimension                   3
boundary	                p p p
atom_style	                atomic

lattice                     bcc 3.189
Lattice spacing in x,y,z = 3.189 3.189 3.189
region                      box block 0 8 0 8 0 8
create_box                  1 box
Created orthogonal box = (0 0 0) to (25.512 25.512 25.512)
  2 by 2 by 4 MPI processor grid
create_atoms                1 box
Created 1024 atoms
  using lattice units in orthogonal box = (0 0 0) to (25.512 25.512 25.512)
  create_atoms CPU = 0.005 seconds

pair_style	                tensormd
pair_coeff	                * * ../../../W_k32_snapshot.npz W interp 0.05 1
Use interpolation: dr = 0.0500, algo = batch

mass                        1 183.8

neighbor                    1.0 bin
neigh_modify                every 1 delay 0 check yes

thermo                      1
thermo_style                custom step cpu temp ke pe etotal press vol pxx pyy pzz

velocity                    all create $T $R dist gaussian
velocity                    all create 300 $R dist gaussian
velocity                    all create 300 984523 dist gaussian
fix                         1 all nvt temp $T $T 0.1
fix                         1 all nvt temp 300 $T 0.1
fix                         1 all nvt temp 300 300 0.1
dump                        1 all custom 1 dump.fnn id type x y z fx fy fz

run                         1000
Neighbor list info ...
  update every 1 steps, delay 0 steps, check yes
  max neighbors/atom: 2000, page size: 100000
  master list distance cutoff = 7
  ghost atom cutoff = 7
  binsize = 3.5, bins = 8 8 8
  1 neighbor lists, perpetual/occasional/extra = 1 0 0
  (1) pair tensormd, perpetual
      attributes: full, newton on
      pair build: full/bin/atomonly
      stencil: full/bin/3d
      bin: standard
Per MPI rank memory allocation (min/avg/max) = 12.25 | 12.25 | 12.25 Mbytes
   Step          CPU            Temp          KinEng         PotEng         TotEng         Press          Volume          Pxx            Pyy            Pzz      
         0   0              300            39.669939     -13091.816     -13052.146      2946.0253      16604.795      3102.3489      2716.6776      3019.0493    
         1   0.005064988    299.75412      39.637425     -13091.783     -13052.146      2948.1252      16604.795      3105.6704      2717.1824      3021.5229    
         2   0.009688171    299.01983      39.540327     -13091.686     -13052.146      2955.8496      16604.795      3116.7982      2720.1365      3030.6142    
         3   0.014396491    297.80562      39.379769     -13091.525     -13052.146      2961.6721      16604.795      3129.2019      2720.2502      3035.5641    
         4   0.019814203    296.11715      39.156497     -13091.302     -13052.146      2934.7644      16604.795      3106.4015      2690.6485      3007.2431    
         5   0.025851601    293.94729      38.86957      -13091.015     -13052.146      2895.838       16604.795      3066.4299      2653.3263      2967.758     
         6   0.030498727    291.28213      38.517147     -13090.663     -13052.146      2875.9677      16604.795      3043.002       2635.3023      2949.5987    
         7   0.035187446    288.11397      38.098212     -13090.243     -13052.145      2888.8325      16604.795      3051.6361      2653.1556      2961.7057    
         8   0.040256399    284.44652      37.613253     -13089.757     -13052.144      2934.769       16604.795      3094.611       2702.3613      3007.3346    
         9   0.044992791    280.29367      37.064109     -13089.207     -13052.143      3011.0671      16604.795      3168.3943      2782.6165      3082.1905    
        10   0.050766342    275.67367      36.453192     -13088.594     -13052.141      3123.6895      16604.795      3281.4367      2897.4963      3192.1355    
        11   0.056640318    270.6092       35.783501     -13087.922     -13052.138      3274.2257      16604.795      3430.9331      3046.5548      3345.1892    
        12   0.061287073    265.1261       35.058454     -13087.193     -13052.135      3455.8167      16604.795      3611.4565      3228.9594      3527.0343    
        13   0.065973513    259.25126      34.281606     -13086.413     -13052.131      3664.802       16604.795      3815.7054      3441.982       3736.7187    
        14   0.070470776    253.01254      33.45664      -13085.583     -13052.126      3911.4726      16604.795      4062.7224      3691.2097      3980.4858    
        15   0.075054455    246.43771      32.58723      -13084.708     -13052.121      4174.3204      16604.795      4331.5059      3949.208       4242.2474    
        16   0.080357997    239.55572      31.677202     -13083.791     -13052.114      4451.541       16604.795      4621.4228      4218.7461      4514.4541    
        17   0.086493172    232.39634      30.730495     -13082.837     -13052.106      4744.9471      16604.795      4931.8465      4501.1548      4801.8401    
        18   0.091017306    224.98833      29.75091      -13081.848     -13052.097      5058.6944      16604.795      5261.4244      4809.5223      5105.1365    
        19   0.095772333    217.35938      28.742111     -13080.829     -13052.087      5393.1602      16604.795      5603.3744      5141.4971      5434.6091    
        20   0.10037784     209.53874      27.707963     -13079.784     -13052.076      5749.719       16604.795      5958.8963      5498.2772      5791.9835    
        21   0.10520746     201.55728      26.65255      -13078.716     -13052.063      6122.6545      16604.795      6333.3517      5873.207       6161.4047    
        22   0.11060234     193.44699      25.5801       -13077.629     -13052.049      6492.9911      16604.795      6710.473       6245.901       6522.5995    
        23   0.1169761      185.2413       24.495037     -13076.529     -13052.034      6864.6577      16604.795      7090.2167      6620.4204      6883.3361    
        24   0.1216088      176.97438      23.401876     -13075.42      -13052.018      7237.1682      16604.795      7467.1796      6995.6112      7248.7139    
        25   0.12644094     168.67798      22.304817     -13074.305     -13052          7619.9115      16604.795      7853.941       7379.8627      7625.9309    
        26   0.13102267     160.38281      21.20792      -13073.19      -13051.982      7999.8529      16604.795      8238.6587      7764.1816      7996.7185    
        27   0.13563602     152.12174      20.115533     -13072.078     -13051.962      8363.7153      16604.795      8609.552       8127.9599      8353.634     
        28   0.14086794     143.928        19.032049     -13070.974     -13051.942      8717.0019      16604.795      8968.9026      8483.4246      8698.6783    
        29   0.14716293     135.8332       17.961649     -13069.882     -13051.92       9060.9037      16604.795      9315.3397      8827.0507      9040.3209    
        30   0.1518642      127.86808      16.908397     -13068.807     -13051.899      9404.0722      16604.795      9658.7214      9173.1273      9380.3679    
        31   0.1567054      120.06249      15.876239     -13067.752     -13051.876      9733.6491      16604.795      9993.0559      9503.5622      9704.3293    
        32   0.16118023     112.44507      14.868964     -13066.722     -13051.853      10046.09       16604.795      10313.406      9813.7401      10011.123    
        33   0.16579555     105.04423      13.890327     -13065.721     -13051.83       10347.629      16604.795      10620.341      10113.555      10308.991    
        34   0.17091419     97.885905      12.943759     -13064.751     -13051.807      10639.392      16604.795      10913.657      10407.537      10596.984    
        35   0.17704289     90.994714      12.032516     -13063.817     -13051.784      10921.041      16604.795      11196.098      10694.066      10872.959    
        36   0.18190024     84.39552       11.159884     -13062.922     -13051.762      11192.784      16604.795      11469.581      10971.147      11137.625    
        37   0.18648522     78.110799      10.328835     -13062.068     -13051.74       11441.856      16604.795      11720.049      11225.124      11380.395    
        38   0.19101173     72.161412      9.5421292     -13061.26      -13051.718      11686.045      16604.795      11965.525      11473.128      11619.482    
        39   0.195689       66.566989      8.8023612     -13060.5       -13051.697      11919.225      16604.795      12198.949      11710.912      11847.814    
        40   0.20036301     61.345329      8.1118847     -13059.789     -13051.677      12136.613      16604.795      12414.512      11935.334      12059.993    
        41   0.20619935     56.512898      7.4728773     -13059.131     -13051.658      12333.104      16604.795      12609.787      12136.51       12253.016    
        42   0.21150276     52.084679      6.88732       -13058.527     -13051.64       12512.134      16604.795      12788.389      12318.652      12429.359    
        43   0.2158231      48.074233      6.3570062     -13057.98      -13051.623      12670.322      16604.795      12945.807      12481.462      12583.697    
        44   0.22044778     44.493531      5.8835187     -13057.49      -13051.606      12804.743      16604.795      13079.179      12619.696      12715.353    
        45   0.22516826     41.352621      5.4681864     -13057.059     -13051.591      12922.795      16604.795      13194.534      12742.006      12831.844    
        46   0.22995164     38.659943      5.1121252     -13056.689     -13051.577      13018.691      16604.795      13288.685      12843.363      12924.023    
        47   0.23584876     36.42199       4.8161937     -13056.379     -13051.563      13089.314      16604.795      13356.661      12918.766      12992.515    
        48   0.24179846     34.643287      4.5809903     -13056.131     -13051.551      13142.28       16604.795      13406.958      12976.1        13043.782    
        49   0.24660291     33.326438      4.4068591     -13055.945     -13051.538      13179.016      16604.795      13441.222      13016.574      13079.251    
        50   0.25140761     32.472058      4.2938818     -13055.821     -13051.527      13189.957      16604.795      13449.131      13031.832      13088.909    
        51   0.25602881     32.078791      4.2418789     -13055.757     -13051.515      13179.948      16604.795      13437.196      13025.262      13077.387    
        52   0.26045668     32.143087      4.2503809     -13055.755     -13051.504      13152.612      16604.795      13408.244      13000.476      13049.116    
        53   0.2661005      32.659493      4.3186669     -13055.812     -13051.493      13101.733      16604.795      13356.98       12952.674      12995.543    
        54   0.27157473     33.620843      4.4457892     -13055.928     -13051.482      13031.354      16604.795      13285.364      12885.27       12923.426    
        55   0.27585054     35.01791       4.6305278     -13056.101     -13051.471      12941.116      16604.795      13191.91       12796.624      12834.812    
        56   0.28040658     36.839625      4.8714189     -13056.33      -13051.459      12832.865      16604.795      13081.441      12688.975      12728.178    
        57   0.2847207      39.073267      5.1667804     -13056.613     -13051.447      12708.94       16604.795      12955.223      12565.961      12605.635    
        58   0.28938886     41.704627      5.5147332     -13056.948     -13051.434      12576.005      16604.795      12821.602      12432.924      12473.491    
        59   0.29459583     44.717661      5.9131563     -13057.333     -13051.42       12425.112      16604.795      12670.378      12280.495      12324.462    
        60   0.30085166     48.094493      6.3596852     -13057.765     -13051.406      12250.839      16604.795      12493.443      12104.705      12154.368    
        61   0.30545359     51.816503      6.8518582     -13058.242     -13051.39       12072.957      16604.795      12312.041      11925.981      11980.849    
        62   0.31011299     55.864287      7.3871094     -13058.76      -13051.373      11876.808      16604.795      12110.022      11728.9        11791.503    
        63   0.31460073     60.216873      7.9626655     -13059.318     -13051.355      11676.31       16604.795      11902.173      11528.271      11598.487    
        64   0.31953612     64.851383      8.5755012     -13059.911     -13051.336      11464.144      16604.795      11682.141      11315.238      11395.053    
        65   0.32468379     69.743568      9.2224101     -13060.537     -13051.314      11239.716      16604.795      11451.246      11090.323      11177.58     
        66   0.33088321     74.869019      9.9001646     -13061.192     -13051.292      11007.987      16604.795      11212.123      10862.285      10949.552    
        67   0.33548766     80.203679      10.605583     -13061.873     -13051.267      10762.033      16604.795      10960.606      10615.211      10710.283    
        68   0.33986834     85.724257      11.335587     -13062.576     -13051.241      10522.697      16604.795      10713.593      10375.055      10479.443    
        69   0.34472396     91.407432      12.087091     -13063.3       -13051.213      10277.409      16604.795      10459.798      10127.771      10244.657    
        70   0.34938037     97.227435      12.856688     -13064.039     -13051.182      10020.94       16604.795      10192.818      9868.5406      10001.46     
        71   0.35397383     103.15864      13.64099      -13064.791     -13051.15       9768.9595      16604.795      9929.4387      9616.5282      9760.9116    
        72   0.36023824     109.17674      14.436782     -13065.552     -13051.115      9514.8956      16604.795      9663.6262      9363.7003      9517.3602    
        73   0.36564203     115.2563       15.240702     -13066.319     -13051.079      9254.695       16604.795      9392.0423      9103.085       9268.9578    
        74   0.37007733     121.37207      16.049409     -13067.089     -13051.04       8995.2796      16604.795      9119.3607      8845.9895      9020.4885    
        75   0.374539       127.49986      16.859705     -13067.858     -13050.998      8736.0725      16604.795      8844.7785      8585.7509      8777.6881    
        76   0.37911711     133.61421      17.668226     -13068.623     -13050.955      8477.147       16604.795      8570.1686      8325.9255      8535.347     
        77   0.38364715     139.69006      18.471653     -13069.381     -13050.91       8222.731       16604.795      8305.1256      8065.9468      8297.1208    
        78   0.38937927     145.70402      19.266899     -13070.129     -13050.862      7964.8391      16604.795      8037.3969      7807.6071      8049.5134    
        79   0.39523911     151.63175      20.050741     -13070.863     -13050.812      7708.2352      16604.795      7773.9124      7551.4722      7799.3211    
        80   0.39964882     157.45049      20.820171     -13071.581     -13050.76       7464.4535      16604.795      7517.9334      7310.2045      7565.2225    
        81   0.40429855     163.13939      21.572432     -13072.279     -13050.707      7220.7741      16604.795      7266.2872      7070.7983      7325.2369    
        82   0.40876953     168.67714      22.304706     -13072.956     -13050.651      6980.325       16604.795      7017.3018      6836.2821      7087.3911    
        83   0.41337479     174.04607      23.014656     -13073.609     -13050.594      6762.404       16604.795      6790.0203      6628.2112      6868.9804    
        84   0.41834228     179.23043      23.700201     -13074.235     -13050.535      6550.0941      16604.795      6570.7         6420.3223      6659.2599    
        85   0.42429274     184.21299      24.35906      -13074.834     -13050.475      6343.0106      16604.795      6355.4726      6217.1045      6456.4547    
        86   0.42896208     188.98017      24.989439     -13075.402     -13050.413      6175.5454      16604.795      6184.8847      6047.6078      6294.1436    
        87   0.43328321     193.51976      25.589724     -13075.939     -13050.35       6019.6534      16604.795      6025.2595      5887.2903      6146.4105    
        88   0.43769265     197.81764      26.158046     -13076.444     -13050.286      5880.7153      16604.795      5884.7556      5747.2519      6010.1385    
        89   0.44231029     201.86233      26.692887     -13076.913     -13050.22       5767.0174      16604.795      5768.002       5633.5537      5899.4966    
        90   0.44697153     205.64503      27.193086     -13077.347     -13050.154      5660.9571      16604.795      5656.7052      5531.1588      5795.0074    
        91   0.45309482     209.1568       27.657457     -13077.745     -13050.087      5570.9955      16604.795      5568.2505      5440.7542      5703.9819    
        92   0.45814029     212.38969      28.084953     -13078.105     -13050.02       5490.7678      16604.795      5491.0944      5356.8702      5624.3387    
        93   0.46266373     215.33826      28.474851     -13078.426     -13049.952      5425.9656      16604.795      5430.908       5287.6717      5559.3172    
        94   0.46743146     217.9984       28.82661      -13078.71      -13049.883      5369.4591      16604.795      5379.0063      5228.3048      5501.0661    
        95   0.47221415     220.36658      29.139763     -13078.954     -13049.814      5328.1201      16604.795      5339.1903      5184.3527      5460.8173    
        96   0.47660454     222.44104      29.414075     -13079.159     -13049.745      5299.2927      16604.795      5314.3608      5152.5322      5430.9851    
        97   0.48246155     224.22235      29.649623     -13079.325     -13049.676      5277.6781      16604.795      5295.0544      5130.3433      5407.6366    
        98   0.48801421     225.71234      29.846649     -13079.453     -13049.606      5263.6265      16604.795      5281.4038      5118.4223      5391.0533    
        99   0.49298387     226.91359      30.005494     -13079.542     -13049.537      5264.629       16604.795      5284.1872      5121.839       5387.8609    
       100   0.49747342     227.82996      30.126668     -13079.594     -13049.468      5282.0316      16604.795      5306.7955      5142.6108      5396.6886    
       101   0.5017917      228.46643      30.21083      -13079.609     -13049.399      5313.3134      16604.795      5339.95        5173.6202      5426.3698    
       102   0.50615825     228.82929      30.258813     -13079.588     -13049.33       5360.7411      16604.795      5391.4537      5213.7319      5477.0377    
       103   0.51139329     228.92569      30.27156      -13079.533     -13049.261      5418.2567      16604.795      5451.2726      5264.7841      5538.7133    
       104   0.51745589     228.76324      30.250079     -13079.443     -13049.193      5494.6814      16604.795      5533.3868      5333.1714      5617.4861    
       105   0.52170721     228.35098      30.195565     -13079.32      -13049.125      5581.3236      16604.795      5623.0966      5411.0742      5709.7998    
       106   0.5261124      227.6986       30.109298     -13079.166     -13049.057      5675.5704      16604.795      5716.8917      5496.8728      5812.9467    
       107   0.53047194     226.81708      29.992732     -13078.983     -13048.99       5785.7837      16604.795      5830.0603      5600.9941      5926.2966    
       108   0.53510365     225.71849      29.847462     -13078.77      -13048.923      5901.188       16604.795      5954.6436      5709.6504      6039.2701    
       109   0.53973638     224.41531      29.675139     -13078.532     -13048.857      6020.5418      16604.795      6085.2416      5824.2564      6152.1274    
       110   0.54593156     222.92066      29.477497     -13078.268     -13048.791      6145.4129      16604.795      6222.8153      5946.9196      6266.5039    
       111   0.55126486     221.24893      29.256438     -13077.982     -13048.725      6282.2658      16604.795      6374.382       6079.4426      6392.9729    
       112   0.55581216     219.4153       29.013971     -13077.674     -13048.66       6432.9966      16604.795      6536.9672      6228.2778      6533.7449    
       113   0.56054265     217.43405      28.751984     -13077.348     -13048.596      6583.5075      16604.795      6696.2968      6380.2642      6673.9614    
       114   0.56536849     215.31978      28.472408     -13077.004     -13048.532      6731.0052      16604.795      6852.5159      6527.3138      6813.1859    
       115   0.57045349     213.08743      28.177217     -13076.645     -13048.468      6882.2252      16604.795      7005.0894      6681.1372      6960.449     
       116   0.57797738     210.75157      27.86834      -13076.273     -13048.405      7031.8981      16604.795      7152.4571      6837.9221      7105.3151    
       117   0.58264026     208.32831      27.547904     -13075.89      -13048.342      7182.0297      16604.795      7302.0297      6991.1947      7252.8647    
       118   0.58770012     205.83353      27.218012     -13075.498     -13048.28       7326.9274      16604.795      7445.1754      7139.04        7396.5668    
       119   0.59351453     203.28106      26.880491     -13075.098     -13048.218      7479.5981      16604.795      7594.0392      7293.123       7551.6322    
       120   0.59819227     200.68442      26.537129     -13074.694     -13048.156      7636.0084      16604.795      7748.1566      7445.4982      7714.3706    
       121   0.60549855     198.05727      26.189732     -13074.285     -13048.095      7792.969       16604.795      7904.9824      7598.3592      7875.5656    
       122   0.61148177     195.41471      25.840299     -13073.875     -13048.035      7943.4443      16604.795      8057.1919      7748.0777      8025.0634    
       123   0.61697103     192.77146      25.490773     -13073.465     -13047.974      8103.4017      16604.795      8217.1282      7910.7745      8182.3023    
       124   0.62213254     190.14077      25.142909     -13073.057     -13047.914      8259.2623      16604.795      8373.8135      8068.3304      8335.6431    
       125   0.62681223     187.53556      24.798413     -13072.653     -13047.855      8416.3823      16604.795      8534.0113      8228.504       8486.6317    
       126   0.63185781     184.96773      24.458862     -13072.254     -13047.796      8564.9361      16604.795      8688.7865      8375.2271      8630.7949    
       127   0.63789937     182.44934      24.125847     -13071.862     -13047.737      8713.3085      16604.795      8842.2035      8522.2084      8775.5135    
       128   0.64295917     179.9928       23.801011     -13071.479     -13047.678      8849.5245      16604.795      8981.5918      8658.391       8908.5907    
       129   0.64780788     177.6086       23.48574      -13071.105     -13047.62       8978.6831      16604.795      9118.5284      8788.0237      9029.4973    
       130   0.65244388     175.30543      23.181185     -13070.743     -13047.561      9100.2121      16604.795      9249.8968      8905.0201      9145.7196    
       131   0.65787227     173.09189      22.888482     -13070.392     -13047.504      9220.9136      16604.795      9377.9725      9020.4476      9264.3208    
       132   0.66421565     170.97648      22.608754     -13070.055     -13047.446      9345.7922      16604.795      9510.3186      9140.9785      9386.0794    
       133   0.67038939     168.96568      22.34286      -13069.731     -13047.388      9466.9523      16604.795      9638.369       9256.5944      9505.8933    
       134   0.67499193     167.06467      22.091484     -13069.423     -13047.331      9574.7354      16604.795      9755.1707      9359.6427      9609.393     
       135   0.67968403     165.27826      21.855261     -13069.129     -13047.274      9668.1436      16604.795      9856.0084      9449.2477      9699.1747    
       136   0.6842652      163.61094      21.634786     -13068.852     -13047.217      9760.0403      16604.795      9955.1989      9540.2867      9784.6352    
       137   0.68880049     162.06573      21.430459     -13068.591     -13047.16       9846.7858      16604.795      10050.805      9626.8288      9862.7233    
       138   0.69370745     160.64449      21.242524     -13068.346     -13047.103      9919.4684      16604.795      10130.73       9702.7394      9924.9362    
       139   0.69986904     159.3491       21.07123      -13068.118     -13047.047      9978.3961      16604.795      10201.266      9761.9781      9971.9446    
       140   0.70432707     158.18081      20.916744     -13067.907     -13046.99       10030.144      16604.795      10262.036      9820.3175      10008.08     
       141   0.70855216     157.1391       20.778995     -13067.712     -13046.933      10080.551      16604.795      10322.013      9877.1542      10042.485    
       142   0.71316198     156.22242      20.657779     -13067.534     -13046.877      10117.571      16604.795      10366.065      9919.4821      10067.167    
       143   0.71779069     155.42925      20.552896     -13067.373     -13046.82       10147.122      16604.795      10401.416      9955.487       10084.462    
       144   0.72233708     154.75675      20.463969     -13067.227     -13046.763      10168.211      16604.795      10425.918      9982.9168      10095.797    
       145   0.72797221     154.20143      20.390538     -13067.097     -13046.706      10185.826      16604.795      10443.052      10002.519      10111.907    
       146   0.73359295     153.7594       20.332087     -13066.981     -13046.649      10205.252      16604.795      10459.397      10026.036      10130.324    
       147   0.73807671     153.42639      20.288051     -13066.88      -13046.592      10216.861      16604.795      10466.359      10043.789      10140.436    
       148   0.74279686     153.19798      20.257848     -13066.793     -13046.535      10234.406      16604.795      10477.171      10068.142      10157.906    
       149   0.74766222     153.0696       20.240872     -13066.718     -13046.477      10243.576      16604.795      10475.276      10084.479      10170.972    
       150   0.75375766     153.0354       20.23635      -13066.656     -13046.42       10236.801      16604.795      10457.393      10084.639      10168.371    
       151   0.75955788     153.0881       20.243318     -13066.605     -13046.362      10233.395      16604.795      10442.86       10087.072      10170.253    
       152   0.76476082     153.22078      20.260863     -13066.565     -13046.304      10224.88       16604.795      10425.167      10085.99       10163.485    
       153   0.76891059     153.42713      20.288149     -13066.534     -13046.246      10216.21       16604.795      10409.248      10082.346      10157.037    
       154   0.77349035     153.69935      20.324146     -13066.511     -13046.187      10194.365      16604.795      10382.274      10064.016      10136.806    
       155   0.77772869     154.02908      20.367747     -13066.496     -13046.128      10166.849      16604.795      10345.953      10038.909      10115.686    
       156   0.78227651     154.40921      20.418013     -13066.487     -13046.069      10142.291      16604.795      10308.577      10015.898      10102.397    
       157   0.78743676     154.83201      20.473921     -13066.484     -13046.01       10112.477      16604.795      10268.217      9988.688       10080.525    
       158   0.79364504     155.28918      20.534375     -13066.485     -13045.951      10077.693      16604.795      10226.764      9957.9523      10048.364    
       159   0.79819624     155.7737       20.598444     -13066.489     -13045.891      10046.201      16604.795      10188.434      9930.7373      10019.431    
       160   0.80283269     156.27812      20.665144     -13066.496     -13045.831      10015.681      16604.795      10151.981      9901.4499      9993.6121    
       161   0.80732585     156.79528      20.73353      -13066.504     -13045.77       9988.1012      16604.795      10117.26       9878.379       9968.6645    
       162   0.81205866     157.31999      20.802914     -13066.513     -13045.71       9956.3126      16604.795      10077.497      9852.9935      9938.4475    
       163   0.81681812     157.84586      20.872452     -13066.521     -13045.649      9931.5224      16604.795      10043.654      9832.0396      9918.8735    
       164   0.82281496     158.36554      20.941171     -13066.529     -13045.588      9904.1196      16604.795      10007.46       9810.1703      9894.7284    
       165   0.82796089     158.87386      21.008387     -13066.535     -13045.527      9882.3994      16604.795      9976.7688      9794.6769      9875.7524    
       166   0.83244133     159.3661       21.073478     -13066.539     -13045.465      9860.9536      16604.795      9944.6746      9780.1735      9858.0128    
       167   0.8370993      159.83611      21.135629     -13066.539     -13045.403      9838.6561      16604.795      9913.0497      9763.9769      9838.9418    
       168   0.84197761     160.27844      21.194119     -13066.536     -13045.341      9825.0351      16604.795      9888.4551      9758.9245      9827.7258    
       169   0.8464392      160.68886      21.24839      -13066.528     -13045.279      9817.3273      16604.795      9873.1356      9761.5239      9817.3223    
       170   0.85233962     161.06507      21.298139     -13066.515     -13045.217      9816.2861      16604.795      9861.4242      9768.2277      9819.2063    
       171   0.8577153      161.40521      21.343116     -13066.497     -13045.154      9818.9993      16604.795      9853.8914      9777.4558      9825.6506    
       172   0.86195591     161.70685      21.383003     -13066.475     -13045.092      9821.015       16604.795      9843.3152      9785.429       9834.3009    
       173   0.86629457     161.96772      21.417498     -13066.446     -13045.029      9824.275       16604.795      9837.5879      9793.3021      9841.935     
       174   0.87058989     162.18529      21.446268     -13066.412     -13044.966      9827.8553      16604.795      9830.2597      9803.1466      9850.1594    
       175   0.87499991     162.36027      21.469406     -13066.372     -13044.903      9844.0182      16604.795      9836.4974      9822.1966      9873.3607    
       176   0.88003646     162.49497      21.487218     -13066.327     -13044.84       9866.0058      16604.795      9848.961       9850.0505      9899.006     
       177   0.88629226     162.59091      21.499905     -13066.277     -13044.777      9888.2617      16604.795      9863.207       9879.1835      9922.3947    
       178   0.89077841     162.65105      21.507857     -13066.221     -13044.713      9919.9227      16604.795      9886.8551      9919.7075      9953.2053    
       179   0.89539689     162.67833      21.511465     -13066.162     -13044.65       9948.7153      16604.795      9906.5264      9956.7388      9982.8808    
       180   0.89988864     162.67455      21.510965     -13066.098     -13044.587      9975.776       16604.795      9926.7771      9991.2873      10009.264    
       181   0.90451775     162.64248      21.506723     -13066.03      -13044.523      10010.912      16604.795      9952.4277      10033.018      10047.291    
       182   0.90959581     162.5864       21.499308     -13065.959     -13044.46       10041.257      16604.795      9972.9473      10073.28       10077.544    
       183   0.91582778     162.51088      21.489322     -13065.886     -13044.396      10067.786      16604.795      9992.1706      10109.327      10101.861    
       184   0.92049214     162.42128      21.477474     -13065.81      -13044.333      10102.487      16604.795      10018.512      10154.041      10134.909    
       185   0.92506235     162.32496      21.464737     -13065.734     -13044.269      10132.981      16604.795      10036.05       10195.723      10167.17     
       186   0.92953359     162.2284       21.451969     -13065.658     -13044.206      10168.63       16604.795      10057.821      10241.383      10206.686    
       187   0.93408552     162.13677      21.439852     -13065.582     -13044.142      10214.506      16604.795      10089.688      10291.742      10262.089    
       188   0.93897804     162.05616      21.429193     -13065.507     -13044.078      10263.001      16604.795      10125.683      10346.824      10316.495    
       189   0.94515334     161.99351      21.420908     -13065.435     -13044.015      10311.656      16604.795      10163.755      10399.389      10371.825    
       190   0.95011667     161.95475      21.415783     -13065.367     -13043.951      10359.221      16604.795      10201.583      10453.669      10422.411    
       191   0.95467609     161.94539      21.414546     -13065.301     -13043.887      10399.498      16604.795      10239.331      10499.633      10459.531    
       192   0.95902836     161.97234      21.41811      -13065.241     -13043.823      10434.559      16604.795      10268.906      10541.104      10493.666    
       193   0.96350069     162.04398      21.427582     -13065.187     -13043.759      10468.854      16604.795      10301.45       10575.62       10529.492    
       194   0.96779676     162.16776      21.443951     -13065.139     -13043.695      10499.258      16604.795      10327.051      10608.569      10562.155    
       195   0.97351363     162.35003      21.468052     -13065.099     -13043.631      10521.423      16604.795      10344.458      10635.873      10583.939    
       196   0.97888425     162.59684      21.500689     -13065.067     -13043.566      10551.922      16604.795      10373.232      10670.715      10611.819    
       197   0.98321947     162.91359      21.542574     -13065.044     -13043.502      10584.155      16604.795      10407.022      10702.48       10642.961    
       198   0.98785271     163.30543      21.594387     -13065.031     -13043.437      10612.734      16604.795      10434.502      10731.779      10671.92     
       199   0.99231152     163.77751      21.656812     -13065.029     -13043.372      10640.895      16604.795      10462.194      10755.554      10704.938    
       200   0.99686488     164.33509      21.730544     -13065.037     -13043.306      10659.947      16604.795      10479.579      10771.85       10728.412    
       201   1.0022128      164.98329      21.816256     -13065.057     -13043.241      10687.856      16604.795      10509.832      10792.623      10761.112    
       202   1.0081241      165.72616      21.914488     -13065.089     -13043.175      10718.231      16604.795      10541.481      10817.52       10795.691    
       203   1.0125897      166.56681      22.025651     -13065.134     -13043.109      10740.704      16604.795      10563.276      10837.793      10821.043    
       204   1.0167281      167.50835      22.150153     -13065.192     -13043.042      10750.745      16604.795      10571.791      10847.838      10832.607    
       205   1.0212043      168.5543       22.288462     -13065.264     -13042.975      10754.886      16604.795      10577.455      10848.151      10839.051    
       206   1.0257528      169.70751      22.440955     -13065.349     -13042.908      10752.257      16604.795      10575.991      10842.538      10838.243    
       207   1.0302096      170.96868      22.607723     -13065.447     -13042.84       10738.662      16604.795      10561.96       10827.846      10826.178    
       208   1.035877       172.33758      22.788737     -13065.56      -13042.771      10720.766      16604.795      10542.429      10808.549      10811.321    
       209   1.0420798      173.81483      22.984078     -13065.686     -13042.702      10696.694      16604.795      10519.123      10781.267      10789.693    
       210   1.0469263      175.39963      23.193641     -13065.827     -13042.633      10676.091      16604.795      10501.729      10757.116      10769.427    
       211   1.0518272      177.08933      23.417076     -13065.98      -13042.563      10644.365      16604.795      10473.746      10719.138      10740.21     
       212   1.0564572      178.88138      23.654045     -13066.146     -13042.492      10608.211      16604.795      10440.256      10681.397      10702.979    
       213   1.0611958      180.77184      23.904026     -13066.325     -13042.421      10568.357      16604.795      10403.711      10640.154      10661.205    
       214   1.0664166      182.75558      24.166342     -13066.516     -13042.349      10526.836      16604.795      10369.209      10591.606      10619.692    
       215   1.0725892      184.82714      24.440271     -13066.717     -13042.277      10474.839      16604.795      10324.97       10529.596      10569.951    
       216   1.0774841      186.98018      24.724974     -13066.928     -13042.203      10413.153      16604.795      10268.623      10458.281      10512.555    
       217   1.0820965      189.20795      25.019559     -13067.149     -13042.13       10347.739      16604.795      10203.025      10389.814      10450.376    
       218   1.0868088      191.50247      25.322971     -13067.378     -13042.055      10271.186      16604.795      10129.524      10308.51       10375.524    
       219   1.0913815      193.85557      25.634129     -13067.614     -13041.98       10200.696      16604.795      10069.629      10228.635      10303.824    
       220   1.0957216      196.25909      25.951953     -13067.856     -13041.904      10125.493      16604.795      10005.996      10140.396      10230.086    
       221   1.10151        198.70419      26.275277     -13068.103     -13041.827      10047.772      16604.795      9943.8826      10046.107      10153.327    
       222   1.106845       201.18258      26.603002     -13068.353     -13041.75       9971.029       16604.795      9884.7533      9953.2653      10075.068    
       223   1.1115767      203.68489      26.93389      -13068.606     -13041.672      9892.4444      16604.795      9821.2194      9856.7407      9999.3731    
       224   1.1163405      206.20141      27.266657     -13068.86      -13041.594      9816.6687      16604.795      9762.1563      9762.2255      9925.6244    
       225   1.1209817      208.72242      27.600018     -13069.115     -13041.515      9736.0172      16604.795      9695.0846      9670.1751      9842.792     
       226   1.1259557      211.23757      27.932604     -13069.368     -13041.435      9651.9859      16604.795      9621.2618      9577.7441      9756.952     
       227   1.1313519      213.73621      28.263007     -13069.618     -13041.355      9565.6348      16604.795      9546.4633      9487.799       9662.6421    
       228   1.137658       216.20606      28.589604     -13069.864     -13041.274      9481.6207      16604.795      9471.152       9398.8758      9574.8343    
       229   1.1426907      218.63403      28.910662     -13070.104     -13041.193      9392.874       16604.795      9388.7433      9305.9379      9483.9408    
       230   1.1474329      221.0066       29.224394     -13070.336     -13041.111      9313.5582      16604.795      9312.3272      9223.2691      9405.0782    
       231   1.1523266      223.31143      29.529169     -13070.558     -13041.029      9234.0303      16604.795      9237.7688      9144.6328      9319.6894    
       232   1.1570081      225.5387       29.823688     -13070.77      -13040.947      9149.3808      16604.795      9155.3958      9058.147       9234.5997    
       233   1.1621836      227.67859      30.106653     -13070.971     -13040.864      9073.4975      16604.795      9082.6573      8977.9521      9159.8832    
       234   1.1681935      229.72034      30.37664      -13071.158     -13040.781      9000.4361      16604.795      9015.239       8903.254       9082.8152    
       235   1.1728026      231.6531       30.632214     -13071.33      -13040.698      8932.8882      16604.795      8952.252       8832.2411      9014.1713    
       236   1.1770263      233.46616      30.871961     -13071.486     -13040.614      8878.3982      16604.795      8905.0494      8768.5304      8961.6147    
       237   1.1815204      235.14994      31.094612     -13071.625     -13040.531      8828.3339      16604.795      8862.1275      8710.3318      8912.5423    
       238   1.1858894      236.69583      31.29903      -13071.746     -13040.447      8775.203       16604.795      8812.0552      8652.2019      8861.352     
       239   1.1903857      238.09521      31.484075     -13071.848     -13040.364      8735.135       16604.795      8768.0789      8610.2602      8827.066     
       240   1.1955152      239.3402       31.648703     -13071.929     -13040.28       8715.3413      16604.795      8745.4689      8588.0594      8812.4955    
       241   1.2015279      240.42356      31.791959     -13071.989     -13040.197      8690.8171      16604.795      8713.8197      8560.6247      8798.0069    
       242   1.2059841      241.33777      31.912849     -13072.026     -13040.114      8681.4464      16604.795      8698.4158      8554.1013      8791.822     
       243   1.2103321      242.07621      32.010495     -13072.041     -13040.03       8676.0111      16604.795      8692.1705      8546.7         8789.1629    
       244   1.2150193      242.63327      32.084156     -13072.032     -13039.948      8668.5104      16604.795      8691.7605      8541.7726      8771.998     
       245   1.2198711      243.00452      32.133247     -13071.998     -13039.865      8674.8029      16604.795      8701.1783      8549.8476      8773.3829    
       246   1.2246816      243.18773      32.157475     -13071.94      -13039.783      8679.8687      16604.795      8705.4739      8559.4431      8774.6891    
       247   1.2307142      243.18206      32.156724     -13071.858     -13039.701      8687.0315      16604.795      8714.6881      8568.1924      8778.2139    
       248   1.2363528      242.98634      32.130845     -13071.75      -13039.619      8702.59        16604.795      8736.3766      8583.7706      8787.6229    
       249   1.2407548      242.59873      32.079589     -13071.618     -13039.538      8723.4941      16604.795      8763.5155      8605.5272      8801.4395    
       250   1.2457552      242.01785      32.002778     -13071.461     -13039.458      8763.6624      16604.795      8809.7936      8642.1128      8839.0807    
       251   1.250378       241.24462      31.900531     -13071.278     -13039.378      8806.1341      16604.795      8859.2276      8680.7617      8878.4129    
       252   1.2554013      240.28192      31.773231     -13071.071     -13039.298      8857.45        16604.795      8912.7581      8735.476       8924.1159    
       253   1.2605013      239.13279      31.621276     -13070.84      -13039.219      8924.9903      16604.795      8983.1773      8807.8334      8983.9603    
       254   1.2666008      237.80245      31.445362     -13070.586     -13039.141      9000.0334      16604.795      9057.2409      8884.5963      9058.2628    
       255   1.2710589      236.29691      31.246279     -13070.309     -13039.063      9082.1093      16604.795      9138.8177      8970.7183      9136.792     
       256   1.2753778      234.62205      31.024808     -13070.01      -13038.985      9175.2265      16604.795      9232.3339      9069.0489      9224.2968    
       257   1.2797399      232.78562      30.78197      -13069.691     -13038.909      9278.7956      16604.795      9335.214       9179.6144      9321.5586    
       258   1.2842464      230.79574      30.518843     -13069.351     -13038.832      9388.8163      16604.795      9444.6956      9294.7946      9426.9589    
       259   1.288672       228.66186      30.236672     -13068.994     -13038.757      9504.6045      16604.795      9557.2263      9417.9078      9538.6793    
       260   1.2935914      226.39361      29.936736     -13068.619     -13038.682      9632.6785      16604.795      9676.9659      9556.036       9665.0335    
       261   1.2995938      224.0001       29.620234     -13068.228     -13038.608      9762.3902      16604.795      9798.8285      9696.94        9791.4023    
       262   1.3046546      221.49201      29.288581     -13067.823     -13038.534      9896.023       16604.795      9927.5585      9840.3565      9920.1539    
       263   1.3091506      218.88279      28.943556     -13067.404     -13038.461      10034.639      16604.795      10057.521      9990.4212      10055.974    
       264   1.3139608      216.18579      28.586923     -13066.975     -13038.388      10177.758      16604.795      10189.835      10150.329      10193.11     
       265   1.3185039      213.41293      28.220259     -13066.537     -13038.316      10327.76       16604.795      10326.967      10311.687      10344.628    
       266   1.3232658      210.57824      27.84542      -13066.091     -13038.245      10484.738      16604.795      10474.082      10476.147      10503.984    
       267   1.3286898      207.69597      27.464288     -13065.639     -13038.175      10632.29       16604.795      10613.056      10629.099      10654.716    
       268   1.3348152      204.77909      27.07858      -13065.183     -13038.104      10784.299      16604.795      10759.244      10783.264      10810.388    
       269   1.3395644      201.8405       26.690001     -13064.725     -13038.035      10938.494      16604.795      10906.668      10941.503      10967.312    
       270   1.3444384      198.89456      26.30045      -13064.266     -13037.966      11098.909      16604.795      11062.773      11103.745      11130.209    
       271   1.3492378      195.95624      25.911906     -13063.809     -13037.897      11262.586      16604.795      11221.061      11271.926      11294.771    
       272   1.353894       193.0397       25.526244     -13063.355     -13037.829      11430.284      16604.795      11385.103      11446.885      11458.864    
       273   1.3590053      190.15853      25.145258     -13062.907     -13037.761      11582.296      16604.795      11532.22       11608.743      11605.924    
       274   1.3649374      187.32725      24.770868     -13062.465     -13037.694      11732.674      16604.795      11678.366      11763.717      11755.939    
       275   1.369556       184.56139      24.40513      -13062.033     -13037.628      11885.937      16604.795      11827.789      11920.913      11909.109    
       276   1.3739468      181.87618      24.050056     -13061.611     -13037.561      12038.435      16604.795      11980.666      12072.691      12061.949    
       277   1.3784398      179.28602      23.707552     -13061.203     -13037.495      12190.745      16604.795      12133.656      12225.332      12213.247    
       278   1.3827472      176.80536      23.379526     -13060.809     -13037.43       12335.858      16604.795      12277.699      12374.945      12354.931    
       279   1.3871376      174.448        23.067805     -13060.432     -13037.365      12478.4        16604.795      12418.827      12519.711      12496.662    
       280   1.3921058      172.22575      22.773949     -13060.074     -13037.3        12624.761      16604.795      12560.153      12669.027      12645.104    
       281   1.3982974      170.15085      22.499579     -13059.735     -13037.235      12764.889      16604.795      12695.834      12810.678      12788.155    
       282   1.4026179      168.2356       22.246319     -13059.417     -13037.17       12893.932      16604.795      12821.107      12938.617      12922.074    
       283   1.4068388      166.49157      22.015701     -13059.122     -13037.106      13008.959      16604.795      12931.61       13057.878      13037.39     
       284   1.4113308      164.92896      21.809073     -13058.851     -13037.042      13121.617      16604.795      13038.277      13177.95       13148.624    
       285   1.4159964      163.55648      21.627585     -13058.606     -13036.978      13222.384      16604.795      13132.578      13284.949      13249.625    
       286   1.4204212      162.38218      21.472304     -13058.386     -13036.914      13308.559      16604.795      13209.953      13378.141      13337.585    
       287   1.4259079      161.41401      21.34428      -13058.194     -13036.85       13382.316      16604.795      13277.292      13458.008      13411.649    
       288   1.4321364      160.65865      21.244396     -13058.03      -13036.786      13440.999      16604.795      13327.972      13522.85       13472.175    
       289   1.4368794      160.12081      21.173276     -13057.894     -13036.721      13485.435      16604.795      13367.977      13567.468      13520.861    
       290   1.4417328      159.80364      21.131335     -13057.788     -13036.657      13524.39       16604.795      13404.21       13603.456      13565.504    
       291   1.4464105      159.70975      21.11892      -13057.711     -13036.592      13557.092      16604.795      13434.975      13634.31       13601.991    
       292   1.4517371      159.84176      21.136376     -13057.663     -13036.527      13578.387      16604.795      13454.907      13654.472      13625.781    
       293   1.457196       160.2006       21.183826     -13057.645     -13036.461      13591.927      16604.795      13466.585      13669.879      13639.315    
       294   1.4633794      160.7863       21.261275     -13057.656     -13036.395      13596.722      16604.795      13472.725      13674.102      13643.34     
       295   1.4678865      161.59744      21.368535     -13057.697     -13036.328      13594.088      16604.795      13471.682      13670.404      13640.177    
       296   1.4722737      162.63157      21.505282     -13057.766     -13036.261      13588.571      16604.795      13464.78       13665.52       13635.412    
       297   1.4767961      163.88593      21.671149     -13057.864     -13036.193      13570.239      16604.795      13450.371      13647.282      13613.064    
       298   1.4813755      165.35726      21.865708     -13057.99      -13036.124      13534.375      16604.795      13421.134      13606.768      13575.223    
       299   1.4856877      167.04061      22.088302     -13058.143     -13036.055      13485.334      16604.795      13379.078      13554.539      13522.386    
       300   1.4912147      168.92965      22.338096     -13058.323     -13035.985      13436.064      16604.795      13333.027      13505.24       13469.923    
       301   1.4968354      171.01698      22.614111     -13058.528     -13035.914      13377.144      16604.795      13274.502      13445.389      13411.541    
       302   1.5012225      173.29435      22.915253     -13058.757     -13035.842      13306.65       16604.795      13202.778      13376.586      13340.586    
       303   1.5059154      175.75376      23.240469     -13059.009     -13035.769      13239.927      16604.795      13134.348      13314.014      13271.419    
       304   1.5103248      178.3857       23.588499     -13059.283     -13035.695      13157.087      16604.795      13049.42       13235.489      13186.353    
       305   1.5149271      181.17873      23.957831     -13059.578     -13035.62       13071.947      16604.795      12958.667      13154.671      13102.502    
       306   1.5197189      184.11986      24.346745     -13059.89      -13035.544      12975.815      16604.795      12859.691      13060.112      13007.641    
       307   1.52571        187.19536      24.753428     -13060.22      -13035.467      12865.461      16604.795      12749.184      12950.133      12897.067    
       308   1.5306244      190.3921       25.176143     -13060.565     -13035.388      12747.999      16604.795      12636.097      12831.294      12776.607    
       309   1.5350846      193.69678      25.613131     -13060.922     -13035.309      12642.312      16604.795      12533.788      12725.091      12668.056    
       310   1.5396116      197.09452      26.062425     -13061.291     -13035.229      12535.687      16604.795      12433.343      12614.463      12559.255    
       311   1.5441642      200.56904      26.521871     -13061.669     -13035.147      12425.754      16604.795      12329.565      12498.847      12448.85     
       312   1.5488573      204.10468      26.9894       -13062.054     -13035.065      12312.619      16604.795      12223.629      12379.731      12334.498    
       313   1.5544928      207.68648      27.463033     -13062.444     -13034.981      12195.866      16604.795      12117.622      12254.936      12215.041    
       314   1.5604385      211.29887      27.94071      -13062.837     -13034.897      12078.966      16604.795      12007.426      12135.703      12093.769    
       315   1.5650414      214.92577      28.420307     -13063.231     -13034.811      11952.149      16604.795      11888.622      12005.848      11961.977    
       316   1.569783       218.54952      28.899487     -13063.624     -13034.725      11825.154      16604.795      11770.037      11867.587      11837.838    
       317   1.5743049      222.1543       29.376158     -13064.014     -13034.638      11703.671      16604.795      11659.717      11735.108      11716.188    
       318   1.5790675      225.72527      29.848358     -13064.398     -13034.549      11578.033      16604.795      11544.785      11603.629      11585.686    
       319   1.58414        229.24694      30.31404      -13064.775     -13034.461      11459.069      16604.795      11435.211      11479.998      11461.997    
       320   1.590247       232.70543      30.771367     -13065.143     -13034.371      11335.029      16604.795      11321.904      11350.89       11332.292    
       321   1.5951981      236.08615      31.21841      -13065.5       -13034.281      11226.203      16604.795      11222.797      11234.63       11221.183    
       322   1.5996067      239.37314      31.653059     -13065.844     -13034.191      11120.525      16604.795      11124.139      11126.236      11111.201    
       323   1.6042183      242.55156      32.073352     -13066.173     -13034.1        11011.44       16604.795      11025.57       11014.202      10994.547    
       324   1.6088352      245.60798      32.477511     -13066.486     -13034.008      10914.998      16604.795      10935.692      10918.564      10890.736    
       325   1.613354       248.5293       32.863807     -13066.78      -13033.916      10827.869      16604.795      10855.269      10830.121      10798.216    
       326   1.6187838      251.30387      33.230697     -13067.055     -13033.824      10740.07       16604.795      10775.373      10736.317      10708.519    
       327   1.6245272      253.92131      33.57681      -13067.309     -13033.732      10663.136      16604.795      10709.684      10648.995      10630.728    
       328   1.6290279      256.37111      33.900754     -13067.541     -13033.64       10583.864      16604.795      10644.733      10555.517      10551.343    
       329   1.6337471      258.64353      34.201243     -13067.749     -13033.548      10510.595      16604.795      10584.335      10470.985      10476.464    
       330   1.6383275      260.72986      34.477125     -13067.933     -13033.456      10440.033      16604.795      10521.658      10389.705      10408.734    
       331   1.6429563      262.6219       34.727315     -13068.092     -13033.364      10370.564      16604.795      10456.565      10310.988      10344.138    
       332   1.6479965      264.31305      34.950941     -13068.224     -13033.273      10324.081      16604.795      10415.112      10256.602      10300.528    
       333   1.6544083      265.79848      35.147364     -13068.329     -13033.182      10280.213      16604.795      10367.475      10212.111      10261.052    
       334   1.659311       267.07293      35.315889     -13068.407     -13033.091      10240.406      16604.795      10325.224      10169.75       10226.243    
       335   1.663811       268.13321      35.456093     -13068.456     -13033          10213.161      16604.795      10293.769      10142.623      10203.089    
       336   1.66845        268.97865      35.567888     -13068.478     -13032.911      10186.071      16604.795      10265.503      10109.14       10183.569    
       337   1.6731794      269.60821      35.651138     -13068.472     -13032.821      10171.809      16604.795      10250.478      10093.799      10171.15     
       338   1.6777771      270.02242      35.70591      -13068.438     -13032.732      10155.335      16604.795      10235.509      10080.614      10149.882    
       339   1.6834913      270.22193      35.732291     -13068.377     -13032.644      10158.779      16604.795      10243.331      10088.053      10144.952    
       340   1.6893582      270.20722      35.730346     -13068.287     -13032.557      10176.533      16604.795      10268.417      10109.503      10151.68     
       341   1.6940118      269.98143      35.700489     -13068.171     -13032.47       10204.804      16604.795      10306.766      10138.095      10169.55     
       342   1.6987067      269.54969      35.643399     -13068.028     -13032.384      10247.318      16604.795      10357.824      10176.498      10207.633    
       343   1.7031031      268.917        35.559736     -13067.859     -13032.299      10309.776      16604.795      10425.118      10239.025      10265.186    
       344   1.7077089      268.08967      35.450336     -13067.665     -13032.215      10375.853      16604.795      10491.477      10306.941      10329.142    
       345   1.7128823      267.07405      35.316037     -13067.447     -13032.131      10447.931      16604.795      10559.229      10375.345      10409.218    
       346   1.7188688      265.87582      35.157592     -13067.206     -13032.048      10529.332      16604.795      10632.762      10451.987      10503.248    
       347   1.7233358      264.50366      34.976146     -13066.942     -13031.966      10611.724      16604.795      10710.606      10527.125      10597.441    
       348   1.7276486      262.96725      34.772982     -13066.658     -13031.885      10694.401      16604.795      10785.237      10602.715      10695.252    
       349   1.7322705      261.27569      34.549302     -13066.354     -13031.804      10789.193      16604.795      10873.851      10686.153      10807.574    
       350   1.7366369      259.4381       34.306312     -13066.031     -13031.725      10907.065      16604.795      10987.592      10796.97       10936.634    
       351   1.7413414      257.46502      34.045405     -13065.691     -13031.646      11022.865      16604.795      11098.078      10913.052      11057.465    
       352   1.7466668      255.37096      33.7685       -13065.336     -13031.567      11143.749      16604.795      11208.014      11038.173      11185.06     
       353   1.7532109      253.17106      33.477601     -13064.967     -13031.49       11270.389      16604.795      11322.729      11177.043      11311.396    
       354   1.7579382      250.88119      33.174805     -13064.588     -13031.413      11392.337      16604.795      11436.316      11306.879      11433.816    
       355   1.7624316      248.51661      32.862129     -13064.199     -13031.337      11509.102      16604.795      11550.054      11432.948      11544.305    
       356   1.7673518      246.09054      32.541321     -13063.802     -13031.261      11618.521      16604.795      11654.214      11554.529      11646.821    
       357   1.7721948      243.61647      32.214168     -13063.4       -13031.186      11748.844      16604.795      11776.612      11695.933      11773.987    
       358   1.7767156      241.10775      31.882432     -13062.994     -13031.111      11893.344      16604.795      11916.363      11848.211      11915.457    
       359   1.7826872      238.57916      31.548068     -13062.586     -13031.037      12041.294      16604.795      12059.004      12008.467      12056.411    
       360   1.788274       236.04459      31.212914     -13062.177     -13030.964      12183.519      16604.795      12196.779      12159.944      12193.833    
       361   1.7928932      233.51712      30.878699     -13061.77      -13030.891      12327.574      16604.795      12333.505      12310.826      12338.39     
       362   1.7975553      231.01046      30.547236     -13061.366     -13030.818      12473.03       16604.795      12470.015      12464.521      12484.556    
       363   1.8020074      228.53789      30.22028      -13060.966     -13030.746      12609.401      16604.795      12595.615      12608.739      12623.849    
       364   1.8066224      226.11218      29.89952      -13060.574     -13030.674      12734.375      16604.795      12708.237      12740.889      12753.999    
       365   1.8116892      223.74612      29.58665      -13060.189     -13030.603      12850.03       16604.795      12815.956      12862.426      12871.707    
       366   1.8179071      221.45173      29.283256     -13059.815     -13030.531      12972.465      16604.795      12928.709      12987.79       13000.897    
       367   1.8224585      219.23998      28.990788     -13059.451     -13030.46       13101.006      16604.795      13045.437      13122.445      13135.136    
       368   1.8267565      217.12261      28.710803     -13059.1       -13030.389      13216.309      16604.795      13149.734      13246.578      13252.616    
       369   1.8312805      215.11162      28.444883     -13058.763     -13030.318      13333.618      16604.795      13252.684      13372.592      13375.577    
       370   1.8358861      213.21616      28.19424      -13058.442     -13030.247      13455.938      16604.795      13363.486      13498.629      13505.701    
       371   1.8403903      211.44519      27.960059     -13058.137     -13030.177      13566.803      16604.795      13466.103      13611.819      13622.486    
       372   1.8461623      209.80949      27.743765     -13057.85      -13030.106      13672.901      16604.795      13566.31       13713.869      13738.523    
       373   1.8522751      208.31822      27.546569     -13057.582     -13030.035      13767.15       16604.795      13654.003      13809.5        13837.948    
       374   1.8570788      206.97952      27.36955      -13057.334     -13029.964      13855.405      16604.795      13737.917      13901.783      13926.515    
       375   1.8616661      205.79998      27.213576     -13057.107     -13029.893      13935.283      16604.795      13813.979      13987.052      14004.818    
       376   1.8662095      204.78515      27.07938      -13056.901     -13029.822      13996.998      16604.795      13862.366      14061.305      14067.323    
       377   1.870978       203.94061      26.967704     -13056.718     -13029.751      14048.959      16604.795      13902.561      14122.471      14121.845    
       378   1.8761685      203.26981      26.879002     -13056.558     -13029.679      14116.593      16604.795      13966.112      14197.265      14186.404    
       379   1.8828158      202.77529      26.813611     -13056.421     -13029.607      14175.006      16604.795      14024.696      14261.952      14238.369    
       380   1.8874         202.46085      26.772031     -13056.307     -13029.535      14224.523      16604.795      14075.936      14316.367      14281.264    
       381   1.8919019      202.32928      26.754634     -13056.217     -13029.462      14251.35       16604.795      14103.477      14346.523      14304.051    
       382   1.8962679      202.38065      26.761427     -13056.15      -13029.389      14272.803      16604.795      14123.642      14374.679      14320.089    
       383   1.9008243      202.61404      26.792288     -13056.108     -13029.315      14301.119      16604.795      14145.877      14410.614      14346.866    
       384   1.9051219      203.02672      26.846859     -13056.088     -13029.241      14321.957      16604.795      14157.566      14439.081      14369.224    
       385   1.9109196      203.61449      26.924581     -13056.091     -13029.167      14341.29       16604.795      14166.161      14462.731      14394.977    
       386   1.9162737      204.3727       27.024841     -13056.116     -13029.091      14352.525      16604.795      14166.334      14476.132      14415.11     
       387   1.9206053      205.2964       27.146985     -13056.163     -13029.016      14354.059      16604.795      14159.379      14476.785      14426.013    
       388   1.9252569      206.38044      27.290331     -13056.23      -13028.939      14360.249      16604.795      14159.942      14480.339      14440.467    
       389   1.9297646      207.61897      27.454105     -13056.316     -13028.862      14363.638      16604.795      14162.098      14479.371      14449.444    
       390   1.9344616      209.00594      27.637509     -13056.422     -13028.784      14351.634      16604.795      14153.601      14462.129      14439.172    
       391   1.9396145      210.53413      27.839587     -13056.546     -13028.706      14332.243      16604.795      14134.517      14436.398      14425.814    
       392   1.9460584      212.19484      28.059187     -13056.686     -13028.627      14306.73       16604.795      14107.38       14406.654      14406.155    
       393   1.9511552      213.97984      28.295223     -13056.842     -13028.547      14273.02       16604.795      14073.658      14366.412      14378.991    
       394   1.9558338      215.88092      28.546609     -13057.013     -13028.466      14231.086      16604.795      14030.912      14319.984      14342.362    
       395   1.9605072      217.88871      28.812106     -13057.197     -13028.385      14175.096      16604.795      13972.509      14262.653      14290.126    
       396   1.9653415      219.99368      29.090453     -13057.393     -13028.303      14109.541      16604.795      13904.047      14193.652      14230.923    
       397   1.9699288      222.1851       29.380231     -13057.6       -13028.22       14028.146      16604.795      13819.92       14112.588      14151.931    
       398   1.9757066      224.45063      29.679808     -13057.817     -13028.137      13951.981      16604.795      13739.746      14040.049      14076.148    
       399   1.9812762      226.77778      29.987536     -13058.04      -13028.053      13878.755      16604.795      13665.194      13965.969      14005.103    
       400   1.9858987      229.15411      30.301765     -13058.269     -13027.968      13800.109      16604.795      13587.272      13883.074      13929.982    
       401   1.9905371      231.56534      30.620609     -13058.503     -13027.882      13720.32       16604.795      13512.204      13802.029      13846.728    
       402   1.9951677      233.99652      30.942092     -13058.738     -13027.796      13635.683      16604.795      13437.358      13713.814      13755.878    
       403   1.9997317      236.43544      31.264598     -13058.974     -13027.709      13567.189      16604.795      13373.874      13646.845      13680.847    
       404   2.0049422      238.87181      31.586767     -13059.209     -13027.622      13492.999      16604.795      13297.989      13578.902      13602.106    
       405   2.0109002      241.29636      31.907372     -13059.442     -13027.535      13430.007      16604.795      13232.108      13523.979      13533.934    
       406   2.0158227      243.69927      32.225117     -13059.671     -13027.446      13367.799      16604.795      13168.455      13462.867      13472.075    
       407   2.0202073      246.06902      32.538476     -13059.896     -13027.358      13301.93       16604.795      13103.034      13400.409      13402.348    
       408   2.0247908      248.39277      32.845753     -13060.115     -13027.269      13228.137      16604.795      13033.442      13322.989      13327.98     
       409   2.0294028      250.65913      33.145441     -13060.325     -13027.18       13171.607      16604.795      12981.069      13261.164      13272.587    
       410   2.0338269      252.85936      33.436384     -13060.527     -13027.09       13123.887      16604.795      12934.029      13211.979      13225.653    
       411   2.0393928      254.98301      33.717201     -13060.718     -13027.001      13079.041      16604.795      12895.762      13164.606      13176.755    
       412   2.0455518      257.0193       33.986466     -13060.897     -13026.911      13043.015      16604.795      12863.373      13120.219      13145.453    
       413   2.0501057      258.95978      34.243062     -13061.064     -13026.821      13011.346      16604.795      12840.797      13079.59       13113.653    
       414   2.0551858      260.79713      34.48602      -13061.217     -13026.731      12976.486      16604.795      12817.183      13038.477      13073.797    
       415   2.060049       262.52301      34.714239     -13061.356     -13026.641      12941.423      16604.795      12796.712      12996.559      13030.999    
       416   2.0646002      264.13068      34.926826     -13061.478     -13026.552      12906.741      16604.795      12772.619      12959.462      12988.143    
       417   2.0699299      265.61677      35.123336     -13061.585     -13026.462      12878.452      16604.795      12760.201      12923.297      12951.858    
       418   2.0760337      266.97688      35.303188     -13061.676     -13026.372      12862.01       16604.795      12756.63       12896.306      12933.094    
       419   2.0807649      268.20604      35.465724     -13061.749     -13026.283      12852.379      16604.795      12762.256      12869.21       12925.67     
       420   2.0855091      269.29937      35.610298     -13061.805     -13026.194      12826.02       16604.795      12751.378      12824.415      12902.267    
       421   2.0899936      270.25257      35.736343     -13061.842     -13026.106      12819.292      16604.795      12761.51       12799.317      12897.049    
       422   2.0947206      271.06283      35.843487     -13061.861     -13026.018      12796.003      16604.795      12750.055      12764.795      12873.16     
       423   2.0997065      271.72927      35.931612     -13061.861     -13025.93       12794.071      16604.795      12755.331      12757.832      12869.048    
       424   2.1057371      272.25383      36.000975     -13061.843     -13025.842      12785.057      16604.795      12760.191      12736.436      12858.546    
       425   2.1105481      272.63796      36.05177      -13061.807     -13025.755      12792.165      16604.795      12779.249      12728.859      12868.388    
       426   2.1151244      272.88147      36.08397      -13061.753     -13025.669      12819.884      16604.795      12819.916      12739.117      12900.62     
       427   2.1198926      272.98627      36.097828     -13061.681     -13025.583      12844.194      16604.795      12855.508      12752.887      12924.187    
       428   2.1244329      272.9576       36.094038     -13061.592     -13025.498      12861.675      16604.795      12887.762      12757.662      12939.6      
       429   2.1291302      272.80009      36.07321      -13061.486     -13025.413      12889.982      16604.795      12929.723      12775.554      12964.668    
       430   2.1342989      272.51927      36.036075     -13061.365     -13025.329      12912.333      16604.795      12966.518      12789.798      12980.683    
       431   2.1406276      272.12113      35.983428     -13061.229     -13025.245      12932.351      16604.795      13005.686      12801.922      12989.444    
       432   2.1457953      271.61224      35.916136     -13061.078     -13025.162      12967.848      16604.795      13057.388      12829.274      13016.88     
       433   2.1503065      270.9991       35.835059     -13060.915     -13025.08       13011.639      16604.795      13112.177      12867.937      13054.804    
       434   2.1552375      270.2868       35.74087      -13060.739     -13024.998      13071.182      16604.795      13174.655      12932.247      13106.643    
       435   2.1601419      269.47977      35.634153     -13060.551     -13024.917      13131.815      16604.795      13239.704      12993.09       13162.65     
       436   2.1647071      268.58637      35.516016     -13060.352     -13024.836      13180.354      16604.795      13297.553      13042.315      13201.195    
       437   2.1704136      267.61719      35.387859     -13060.144     -13024.756      13237.682      16604.795      13360.125      13107.751      13245.169    
       438   2.1759634      266.57902      35.250578     -13059.927     -13024.676      13317.77       16604.795      13445.565      13196.705      13311.041    
       439   2.1804057      265.48048      35.105315     -13059.702     -13024.597      13388.602      16604.795      13522.785      13273.718      13369.304    
       440   2.1847715      264.33273      34.953544     -13059.472     -13024.518      13458.379      16604.795      13597.078      13347.53       13430.53     
       441   2.1892293      263.14792      34.796872     -13059.237     -13024.44       13532.938      16604.795      13679.919      13422.565      13496.33     
       442   2.193563       261.9364       34.63667      -13058.999     -13024.362      13612.589      16604.795      13770.728      13500.413      13566.625    
       443   2.1980363      260.7058       34.473944     -13058.759     -13024.285      13704.706      16604.795      13874.944      13590.964      13648.21     
       444   2.2030076      259.46423      34.309766     -13058.518     -13024.208      13798.251      16604.795      13974.511      13679.12       13741.123    
       445   2.2090935      258.22188      34.145487     -13058.277     -13024.131      13880.607      16604.795      14064.113      13756.047      13821.66     
       446   2.2135728      256.99013      33.982609     -13058.038     -13024.055      13965.303      16604.795      14157.573      13840.109      13898.227    
       447   2.217867       255.77931      33.822499     -13057.802     -13023.979      14046.878      16604.795      14244.635      13925.973      13970.026    
       448   2.222481       254.59912      33.666438     -13057.57      -13023.904      14112.16       16604.795      14317.428      13997.761      14021.291    
       449   2.2271932      253.45994      33.5158       -13057.344     -13023.828      14178.03       16604.795      14387.307      14069.487      14077.294    
       450   2.2317365      252.37273      33.372036     -13057.125     -13023.753      14262.358      16604.795      14471.245      14157.406      14158.424    
       451   2.2374578      251.34614      33.236287     -13056.914     -13023.678      14346.268      16604.795      14552.985      14250.444      14235.374    
       452   2.2432012      250.38616      33.109346     -13056.712     -13023.603      14431.899      16604.795      14633.705      14345.72       14316.272    
       453   2.248128       249.49845      32.991961     -13056.52      -13023.528      14518.566      16604.795      14716.601      14439.749      14399.349    
       454   2.2531799      248.68774      32.884758     -13056.338     -13023.453      14589.606      16604.795      14785.151      14516.156      14467.511    
       455   2.2579548      247.95828      32.7883       -13056.167     -13023.378      14655.871      16604.795      14851.559      14585.899      14530.155    
       456   2.2627058      247.31616      32.703389     -13056.007     -13023.304      14709.405      16604.795      14906.877      14642.834      14578.504    
       457   2.2679705      246.7672       32.630799     -13055.859     -13023.229      14757.432      16604.795      14952.717      14695.913      14623.666    
       458   2.2742651      246.31512      32.571019     -13055.725     -13023.154      14797.873      16604.795      14987.988      14735.908      14669.724    
       459   2.2788565      245.96452      32.524658     -13055.603     -13023.079      14841.908      16604.795      15029.486      14778.322      14717.917    
       460   2.2826493      245.7209       32.492443     -13055.496     -13023.003      14888.276      16604.795      15071.112      14829.395      14764.322    
       461   2.3921125      245.58886      32.474984     -13055.403     -13022.928      14918.695      16604.795      15094.684      14868.691      14792.709    
       462   2.3968754      245.57146      32.472683     -13055.325     -13022.852      14945.309      16604.795      15115.969      14899.898      14820.059    
       463   2.4014779      245.67046      32.485773     -13055.262     -13022.777      14969.431      16604.795      15135.638      14927.545      14845.109    
       464   2.4060455      245.88724      32.514439     -13055.215     -13022.701      14991.458      16604.795      15151.188      14951.258      14871.929    
       465   2.4108057      246.22042      32.558497     -13055.183     -13022.624      14997.144      16604.795      15150.076      14961.369      14879.988    
       466   2.4157052      246.66734      32.617594     -13055.165     -13022.548      15000.635      16604.795      15142.547      14972.968      14886.391    
       467   2.421555       247.22553      32.691406     -13055.162     -13022.471      15024.477      16604.795      15157.851      15006.64       14908.939    
       468   2.4270192      247.89203      32.779539     -13055.173     -13022.394      15061.696      16604.795      15186.75       15047.932      14950.404    
       469   2.4315896      248.6663       32.881923     -13055.198     -13022.316      15085.489      16604.795      15199.57       15075.227      14981.67     
       470   2.4365082      249.54761      32.998461     -13055.236     -13022.238      15103.255      16604.795      15207.376      15096.13       15006.26     
       471   2.4412171      250.53148      33.128561     -13055.288     -13022.16       15114.334      16604.795      15203.666      15112.818      15026.519    
       472   2.445793       251.61297      33.27157      -13055.353     -13022.081      15108.335      16604.795      15190.387      15110.081      15024.537    
       473   2.4514477      252.7871       33.426829     -13055.429     -13022.002      15097.661      16604.795      15171.455      15097.868      15023.661    
       474   2.4572338      254.04807      33.593571     -13055.516     -13021.923      15088.231      16604.795      15151.767      15092.808      15020.118    
       475   2.461802       255.3899       33.771006     -13055.614     -13021.843      15067.637      16604.795      15120.841      15082.478      14999.592    
       476   2.4664165      256.80457      33.958071     -13055.721     -13021.763      15048.749      16604.795      15097.955      15065.953      14982.34     
       477   2.4708495      258.27992      34.153162     -13055.835     -13021.682      15010.421      16604.795      15056.221      15032.159      14942.883    
       478   2.4754238      259.80539      34.35488      -13055.956     -13021.601      14957.798      16604.795      14992.177      14990.083      14891.135    
       479   2.4802551      261.37577      34.562536     -13056.083     -13021.52       14899.198      16604.795      14928.105      14942.869      14826.621    
[...]
       894   4.4601453      296.99964      39.273191     -13050.807     -13011.534      16820.605      16604.795      16654.923      16806.714      17000.177    
       895   4.4634267      299.06926      39.546864     -13051.102     -13011.555      16762.089      16604.795      16599.004      16748.448      16938.816    
       896   4.4665503      301.15275      39.822371     -13051.398     -13011.576      16706.786      16604.795      16548.449      16687.665      16884.244    
       897   4.4697962      303.24184      40.098617     -13051.696     -13011.597      16647.963      16604.795      16492.159      16623.341      16828.389    
       898   4.472987       305.32897      40.374606     -13051.993     -13011.619      16589.626      16604.795      16435.946      16563.365      16769.568    
       899   4.4773274      307.40816      40.649543     -13052.29      -13011.641      16531.895      16604.795      16385.99       16500.959      16708.734    
       900   4.4816008      309.4723       40.922491     -13052.585     -13011.663      16464.343      16604.795      16323.932      16429.279      16639.818    
       901   4.4848102      311.51184      41.192185     -13052.878     -13011.686      16399.698      16604.795      16260.482      16357.203      16581.41     
       902   4.4879959      313.51654      41.457273     -13053.166     -13011.709      16327.967      16604.795      16192.166      16274.833      16516.902    
       903   4.49121        315.47986      41.716889     -13053.449     -13011.732      16256.269      16604.795      16117.275      16196.413      16455.12     
       904   4.4944456      317.39553      41.970204     -13053.726     -13011.756      16171.211      16604.795      16025.281      16109.116      16379.237    
       905   4.4976774      319.25353      42.215893     -13053.997     -13011.781      16112.197      16604.795      15960.995      16044.863      16330.732    
       906   4.5012442      321.04464      42.452737     -13054.259     -13011.806      16045.876      16604.795      15891.222      15976.407      16270        
       907   4.5057778      322.76054      42.679635     -13054.512     -13011.833      15981.234      16604.795      15828.974      15907.361      16207.368    
       908   4.5094121      324.39457      42.895709     -13054.755     -13011.859      15928.149      16604.795      15782.179      15849.661      16152.608    
       909   4.5125636      325.94169      43.100289     -13054.987     -13011.887      15867.361      16604.795      15726.698      15784.232      16091.152    
       910   4.5159565      327.39675      43.292697     -13055.209     -13011.916      15805.788      16604.795      15669.529      15714.538      16033.297    
       911   4.5190868      328.75557      43.472377     -13055.418     -13011.945      15754.654      16604.795      15618.386      15654.689      15990.887    
       912   4.5225093      330.01365      43.638737     -13055.614     -13011.976      15709.025      16604.795      15576.467      15601.425      15949.182    
       913   4.5256759      331.16557      43.791059     -13055.798     -13012.007      15658.245      16604.795      15530.813      15537.196      15906.725    
       914   4.5294464      332.20588      43.928623     -13055.968     -13012.039      15617.323      16604.795      15497.254      15484.255      15870.46     
       915   4.5341156      333.12864      44.050642     -13056.123     -13012.073      15577.061      16604.795      15461.398      15438.1        15831.686    
       916   4.5374634      333.93053      44.156678     -13056.264     -13012.107      15526.604      16604.795      15416.045      15382.669      15781.098    
       917   4.5405965      334.61251      44.246859     -13056.389     -13012.142      15487.456      16604.795      15384.475      15335.492      15742.401    
       918   4.5438811      335.17474      44.321204     -13056.5       -13012.179      15471.086      16604.795      15374.935      15315.922      15722.399    
       919   4.5469888      335.61563      44.379504     -13056.596     -13012.216      15442.719      16604.795      15351.343      15279.443      15697.37     
       920   4.5503216      335.93424      44.421635     -13056.676     -13012.255      15413.839      16604.795      15323.779      15243.557      15674.182    
       921   4.5534349      336.131        44.447653     -13056.742     -13012.294      15392.555      16604.795      15300.237      15214.979      15662.45     
       922   4.5571325      336.20384      44.457286     -13056.792     -13012.335      15385.405      16604.795      15292.924      15196.543      15666.749    
       923   4.5617757      336.15079      44.45027      -13056.827     -13012.376      15380.422      16604.795      15293.522      15182.79       15664.953    
       924   4.565112       335.9736       44.42684      -13056.846     -13012.419      15395.182      16604.795      15310.044      15181.986      15693.516    
       925   4.5682408      335.67524      44.387387     -13056.85      -13012.462      15404.049      16604.795      15323.487      15171.6        15717.06     
       926   4.5714792      335.25868      44.332304     -13056.839     -13012.507      15413.05       16604.795      15331.915      15159.804      15747.43     
       927   4.5745911      334.72675      44.261966     -13056.814     -13012.552      15422.751      16604.795      15349.216      15146.58       15772.458    
       928   4.5779233      334.0822       44.176734     -13056.775     -13012.598      15445.645      16604.795      15384.011      15150.095      15802.83     
       929   4.5810607      333.32552      44.076676     -13056.722     -13012.645      15471.1        16604.795      15413.236      15159.933      15840.13     
       930   4.5848194      332.45848      43.962025     -13056.655     -13012.693      15508.728      16604.795      15454.572      15186.413      15885.198    
       931   4.5900973      331.4876       43.833643     -13056.575     -13012.741      15536.004      16604.795      15484.94       15208.607      15914.465    
       932   4.5933137      330.41889      43.692324     -13056.483     -13012.79       15568.089      16604.795      15522.947      15236.045      15945.276    
       933   4.5969971      329.25758      43.53876      -13056.379     -13012.84       15590.295      16604.795      15558.508      15248.197      15964.182    
       934   4.6006908      328.01105      43.373927     -13056.264     -13012.89       15610.403      16604.795      15589.731      15256.524      15984.954    
       935   4.6040829      326.68477      43.198549     -13056.139     -13012.94       15633.369      16604.795      15625.424      15269.728      16004.954    
       936   4.60724        325.28262      43.013139     -13056.005     -13012.991      15663.159      16604.795      15665.675      15289.119      16034.682    
       937   4.6120228      323.81139      42.818593     -13055.861     -13013.043      15704.055      16604.795      15719.696      15321.288      16071.183    
       938   4.6174269      322.27827      42.615863     -13055.71      -13013.094      15748.112      16604.795      15773.835      15358.162      16112.339    
       939   4.6211672      320.68809      42.405589     -13055.552     -13013.146      15788.84       16604.795      15827.264      15384.409      16154.847    
       940   4.6257998      319.0448       42.188292     -13055.387     -13013.198      15818.913      16604.795      15862.029      15404.549      16190.161    
       941   4.6296208      317.35593      41.964968     -13055.215     -13013.25       15842.547      16604.795      15887.262      15426.763      16213.617    
       942   4.6330291      315.63055      41.736816     -13055.039     -13013.302      15856.247      16604.795      15903.504      15439.864      16225.374    
       943   4.6373571      313.87776      41.505038     -13054.859     -13013.354      15859.07       16604.795      15909.147      15439.449      16228.614    
       944   4.6420912      312.10596      41.270748     -13054.677     -13013.406      15884.878      16604.795      15936.467      15462.947      16255.22     
       945   4.6453915      310.32037      41.034634     -13054.493     -13013.458      15924.476      16604.795      15972.869      15501.189      16299.369    
       946   4.6495089      308.52654      40.79743      -13054.307     -13013.51       15974.355      16604.795      16021.839      15551.769      16349.457    
       947   4.6527544      306.73112      40.560016     -13054.121     -13013.561      16026.755      16604.795      16073.704      15603.291      16403.269    
       948   4.6558482      304.94071      40.323264     -13053.935     -13013.612      16071.817      16604.795      16124.298      15644.07       16447.084    
       949   4.6590941      303.16223      40.08809      -13053.75      -13013.662      16114.597      16604.795      16175.838      15682.274      16485.68     
       950   4.6622559      301.40286      39.855443     -13053.568     -13013.712      16169.106      16604.795      16237.455      15732.242      16537.621    
       951   4.6663507      299.66947      39.626232     -13053.388     -13013.762      16220.354      16604.795      16297.238      15780.883      16582.943    
       952   4.6705416      297.96687      39.401092     -13053.213     -13013.811      16277.555      16604.795      16359.428      15839.417      16633.819    
       953   4.6738112      296.30034      39.180721     -13053.041     -13013.86       16335.58       16604.795      16419.961      15899.299      16687.478    
       954   4.6769112      294.67636      38.965977     -13052.874     -13013.908      16396.994      16604.795      16485.19       15961.238      16744.552    
       955   4.6801456      293.0997       38.75749      -13052.713     -13013.956      16437.074      16604.795      16532.587      15996.771      16781.864    
       956   4.6832897      291.57544      38.555933     -13052.559     -13014.003      16459.893      16604.795      16566.315      16011.597      16801.767    
       957   4.6864882      290.10886      38.362002     -13052.411     -13014.049      16489.384      16604.795      16607.25       16037.917      16822.987    
       958   4.6896407      288.70284      38.17608      -13052.271     -13014.095      16507.818      16604.795      16637.051      16055.317      16831.085    
       959   4.6947725      287.35931      37.998421     -13052.138     -13014.14       16526.531      16604.795      16670.241      16069.792      16839.558    
       960   4.6990542      286.08054      37.829325     -13052.014     -13014.184      16544.582      16604.795      16693.439      16086.642      16853.666    
       961   4.7022288      284.87034      37.669297     -13051.897     -13014.228      16562.728      16604.795      16715.097      16103.926      16869.16     
       962   4.7055768      283.73314      37.518921     -13051.79      -13014.271      16576.186      16604.795      16729.916      16121.116      16877.525    
       963   4.7086756      282.67427      37.378903     -13051.692     -13014.313      16589.579      16604.795      16744.571      16137.212      16886.953    
       964   4.7120093      281.69869      37.249899     -13051.604     -13014.355      16592.475      16604.795      16745.44       16140.057      16891.928    
       965   4.7151363      280.80756      37.132062     -13051.527     -13014.395      16600.956      16604.795      16754.458      16148.087      16900.324    
       966   4.718861       280.00171      37.025502     -13051.461     -13014.435      16600.393      16604.795      16754.899      16156.332      16889.949    
       967   4.7235151      279.28202      36.930336     -13051.405     -13014.475      16610.38       16604.795      16759.271      16180.386      16891.485    
       968   4.7268851      278.64609      36.846244     -13051.359     -13014.513      16623.295      16604.795      16769.423      16202.529      16897.934    
       969   4.730024       278.09188      36.77296      -13051.324     -13014.551      16623.039      16604.795      16763.498      16211.003      16894.615    
       970   4.7333299      277.61901      36.710431     -13051.299     -13014.588      16591.815      16604.795      16729.202      16187.765      16858.479    
       971   4.7364344      277.22544      36.658387     -13051.283     -13014.625      16582.988      16604.795      16724.215      16185.061      16839.687    
       972   4.7397896      276.91091      36.616796     -13051.277     -13014.66       16570.854      16604.795      16710.724      16187.321      16814.518    
       973   4.7431768      276.6774       36.585919     -13051.282     -13014.696      16569.843      16604.795      16706.137      16199.52       16803.872    
       974   4.7481813      276.5244       36.565686     -13051.296     -13014.73       16545.605      16604.795      16681.691      16182.561      16772.562    
       975   4.7523021      276.44813      36.555601     -13051.319     -13014.764      16527.388      16604.795      16661.315      16180.13       16740.719    
       976   4.7554592      276.44637      36.555368     -13051.352     -13014.797      16506.831      16604.795      16634.477      16175.117      16710.898    
       977   4.7586074      276.51676      36.564676     -13051.394     -13014.829      16487.574      16604.795      16612.88       16167.339      16682.503    
       978   4.7618309      276.65334      36.582736     -13051.444     -13014.861      16457.205      16604.795      16587.604      16141.041      16642.968    
       979   4.7649305      276.85204      36.609012     -13051.501     -13014.892      16416.697      16604.795      16550.911      16107.356      16591.825    
       980   4.7694907      277.10949      36.643054     -13051.566     -13014.923      16365.829      16604.795      16501.802      16068.251      16527.436    
       981   4.7733173      277.42057      36.68419      -13051.637     -13014.953      16333.947      16604.795      16470.943      16049.265      16481.633    
       982   4.7780035      277.78037      36.731768     -13051.714     -13014.983      16311.964      16604.795      16448.7        16039.392      16447.8      
       983   4.7813726      278.18559      36.78535      -13051.797     -13015.011      16283.798      16604.795      16420.303      16016.924      16414.165    
       984   4.7845187      278.63505      36.844785     -13051.885     -13015.04       16252.256      16604.795      16382.274      15996.271      16378.224    
       985   4.7877264      279.12691      36.909825     -13051.977     -13015.068      16216.235      16604.795      16338.424      15968.803      16341.477    
       986   4.7908283      279.65751      36.979987     -13052.075     -13015.095      16184.579      16604.795      16297.979      15947.393      16308.365    
       987   4.7940846      280.22134      37.054545     -13052.176     -13015.122      16160.246      16604.795      16260.617      15934.394      16285.729    
       988   4.7972267      280.81253      37.132719     -13052.281     -13015.148      16138.809      16604.795      16228.264      15920.677      16267.486    
       989   4.8011337      281.4252       37.213734     -13052.388     -13015.174      16118.937      16604.795      16204.768      15905.674      16246.367    
       990   4.8056363      282.05372      37.296845     -13052.497     -13015.2        16108.152      16604.795      16189.348      15899.936      16235.17     
       991   4.8088966      282.69332      37.381423     -13052.606     -13015.225      16107.854      16604.795      16182.026      15903.61       16237.926    
       992   4.8120071      283.33992      37.466924     -13052.717     -13015.25       16077.121      16604.795      16141.719      15881.51       16208.135    
       993   4.8153445      283.98804      37.552627     -13052.827     -13015.274      16037.503      16604.795      16088.955      15848.567      16174.987    
       994   4.8184562      284.63212      37.637796     -13052.936     -13015.298      16002.685      16604.795      16044.313      15820.616      16143.126    
       995   4.8216938      285.26984      37.722123     -13053.044     -13015.322      15965.711      16604.795      16004.135      15785.321      16107.678    
       996   4.8249248      285.8995       37.805385     -13053.15      -13015.345      15921.862      16604.795      15956.712      15749.099      16059.774    
       997   4.8290443      286.51602      37.88691      -13053.255     -13015.368      15884.518      16604.795      15920.008      15716.529      16017.017    
       998   4.8332562      287.11502      37.966118     -13053.357     -13015.39       15839.165      16604.795      15871.77       15675.033      15970.693    
       999   4.8365244      287.69423      38.042708     -13053.455     -13015.413      15798.359      16604.795      15829.195      15640.57       15925.313    
      1000   4.8396375      288.25127      38.116367     -13053.551     -13015.435      15765.126      16604.795      15790.835      15619.627      15884.915    
Loop time of 4.83967 on 16 procs for 1000 steps with 1024 atoms

Performance: 17.852 ns/day, 1.344 hours/ns, 206.626 timesteps/s
98.8% CPU use with 16 MPI tasks x 1 OpenMP threads

MPI task timing breakdown:
Section |  min time  |  avg time  |  max time  |%varavg| %total
---------------------------------------------------------------
Pair    | 3.9951     | 4.0422     | 4.1292     |   1.6 | 83.52
Neigh   | 0          | 0          | 0          |   0.0 |  0.00
Comm    | 0.24331    | 0.32208    | 0.37848    |   6.7 |  6.66
Output  | 0.41587    | 0.41796    | 0.44143    |   0.9 |  8.64
Modify  | 0.01814    | 0.019753   | 0.021755   |   0.9 |  0.41
Other   |            | 0.03763    |            |       |  0.78

Nlocal:             64 ave          64 max          64 min
Histogram: 16 0 0 0 0 0 0 0 0 0
Nghost:            887 ave         887 max         887 min
Histogram: 16 0 0 0 0 0 0 0 0 0
Neighs:              0 ave           0 max           0 min
Histogram: 16 0 0 0 0 0 0 0 0 0
FullNghs:         5632 ave        5632 max        5632 min
Histogram: 16 0 0 0 0 0 0 0 0 0

Total # of neighbors = 90112
Ave neighs/atom = 88
Neighbor list builds = 0
Dangerous builds = 0


--------------------------------------------------------------------------

                               FLOPs Report

--------------------------------------------------------------------------
         alloc:     0.0000 GFlops,       0.0001 secs,       0.0000 GFLOP/s
         setup:     0.0000 GFlops,       0.2473 secs,       0.0000 GFLOP/s
   fnn->interp:     3.4243 GFlops,       0.8103 secs,       4.2261 GFLOP/s
             P:     7.2090 GFlops,       0.4958 secs,      14.5386 GFLOP/s
             Q:     0.4506 GFlops,       0.0860 secs,       5.2369 GFLOP/s
             G:     0.0020 GFlops,       0.0117 secs,       0.1747 GFLOP/s
   nn->compute:    12.7224 GFlops,       0.4866 secs,      26.1464 GFLOP/s
          dEdP:     0.4547 GFlops,       0.1137 secs,       3.9995 GFLOP/s
            UV:    14.4179 GFlops,       0.9893 secs,      14.5737 GFLOP/s
            F1:     0.3773 GFlops,       0.3502 secs,       1.0776 GFLOP/s
            F2:     0.2422 GFlops,       0.3821 secs,       0.6338 GFLOP/s
        forces:     0.0676 GFlops,       0.0418 secs,       1.6168 GFLOP/s
--------------------------------------------------------------------------
       Overall:    39.3679 GFlops,       4.0150 secs,       9.8053 GFLOP/s
--------------------------------------------------------------------------

Total wall time: 0:00:04
