LAMMPS (4 May 2022)
  using 1 OpenMP thread(s) per MPI task
variable                    T equal 300
variable                    R equal 984523

units		                metal
dimension                   3
boundary	                p p p
atom_style	                atomic

lattice                     bcc 3.189
Lattice spacing in x,y,z = 3.189 3.189 3.189
region                      box block 0 8 0 8 0 8
create_box                  1 box
Created orthogonal box = (0 0 0) to (25.512 25.512 25.512)
  2 by 2 by 4 MPI processor grid
create_atoms                1 box
Created 1024 atoms
  using lattice units in orthogonal box = (0 0 0) to (25.512 25.512 25.512)
  create_atoms CPU = 0.002 seconds

pair_style	                tensormd
pair_coeff	                * * ../../../W_k32_snapshot.npz W interp 0.01 1
Use interpolation: dr = 0.0100, algo = batch

mass                        1 183.8

neighbor                    1.0 bin
neigh_modify                every 1 delay 0 check yes

thermo                      1
thermo_style                custom step cpu temp ke pe etotal press vol pxx pyy pzz

velocity                    all create $T $R dist gaussian
velocity                    all create 300 $R dist gaussian
velocity                    all create 300 984523 dist gaussian
fix                         1 all nvt temp $T $T 0.1
fix                         1 all nvt temp 300 $T 0.1
fix                         1 all nvt temp 300 300 0.1
dump                        1 all custom 1 dump.fnn id type x y z fx fy fz

run                         1000
Neighbor list info ...
  update every 1 steps, delay 0 steps, check yes
  max neighbors/atom: 2000, page size: 100000
  master list distance cutoff = 7
  ghost atom cutoff = 7
  binsize = 3.5, bins = 8 8 8
  1 neighbor lists, perpetual/occasional/extra = 1 0 0
  (1) pair tensormd, perpetual
      attributes: full, newton on
      pair build: full/bin/atomonly
      stencil: full/bin/3d
      bin: standard
Per MPI rank memory allocation (min/avg/max) = 12.72 | 12.72 | 12.72 Mbytes
   Step          CPU            Temp          KinEng         PotEng         TotEng         Press          Volume          Pxx            Pyy            Pzz      
         0   0              300            39.669939     -13091.705     -13052.035      1647.5166      16604.795      1803.8402      1418.1689      1720.5406    
         1   0.003895298    299.74291      39.635943     -13091.672     -13052.036      1608.2628      16604.795      1763.4693      1380.3439      1680.9752    
         2   0.007485799    298.96749      39.533406     -13091.569     -13052.036      1605.8106      16604.795      1761.5242      1377.3849      1678.5228    
         3   0.011139182    297.67259      39.362178     -13091.398     -13052.036      1658.5367      16604.795      1815.6878      1429.4122      1730.5101    
         4   0.015799008    295.86543      39.123211     -13091.159     -13052.035      1741.0402      16604.795      1899.2933      1511.9468      1811.8805    
         5   0.020087291    293.55438      38.817614     -13090.853     -13052.035      1847.9882      16604.795      2007.8936      1618.1046      1917.9664    
         6   0.023448359    290.74888      38.446634     -13090.481     -13052.035      1979.1559      16604.795      2139.9458      1748.7351      2048.7868    
         7   0.027891459    287.46045      38.011794     -13090.046     -13052.034      2132.9177      16604.795      2293.5767      1904.1539      2201.0224    
         8   0.032111313    283.70219      37.514828     -13089.548     -13052.033      2306.3732      16604.795      2468.9299      2077.7934      2372.3965    
         9   0.03585267     279.48921      36.957733     -13088.989     -13052.031      2499.6192      16604.795      2665.1235      2271.0838      2562.6503    
        10   0.039420365    274.83856      36.342762     -13088.372     -13052.03       2713.2867      16604.795      2880.4603      2485.1611      2774.2386    
        11   0.043986156    269.76901      35.672401     -13087.699     -13052.027      2946.9554      16604.795      3116.1091      2719.0401      3005.7169    
        12   0.048094722    264.30105      34.949355     -13086.973     -13052.024      3198.2849      16604.795      3369.7328      2970.6458      3254.4761    
        13   0.051453471    258.45638      34.176495     -13086.196     -13052.02       3464.7903      16604.795      3637.831       3238.5204      3518.0195    
        14   0.054975472    252.25846      33.356925     -13085.372     -13052.015      3747.397       16604.795      3923.8982      3522.1145      3796.1784    
        15   0.058298285    245.73236      32.493959     -13084.503     -13052.009      4043.1781      16604.795      4222.7603      3817.429       4089.345     
        16   0.062145113    238.9041       31.591037     -13083.593     -13052.002      4351.0418      16604.795      4532.8914      4126.3113      4393.9228    
        17   0.065424748    231.8009       30.651758     -13082.646     -13051.994      4669.6474      16604.795      4854.3063      4446.3233      4708.3125    
        18   0.069347517    224.45114      29.679876     -13081.665     -13051.985      5000.3217      16604.795      5188.9907      4777.7604      5034.2139    
        19   0.074526056    216.88396      28.679244     -13080.654     -13051.975      5339.0734      16604.795      5531.1497      5116.9371      5369.1334    
        20   0.078415549    209.12919      27.653807     -13079.617     -13051.963      5684.7045      16604.795      5879.2463      5463.342       5711.5251    
        21   0.082214617    201.21746      26.607614     -13078.558     -13051.951      6036.1849      16604.795      6234.4426      5815.5368      6058.5753    
        22   0.085756954    193.17995      25.544789     -13077.481     -13051.937      6391.6782      16604.795      6594.083       6172.3279      6408.6237    
        23   0.089171652    185.04805      24.469483     -13076.391     -13051.921      6750.173       16604.795      6955.5196      6532.64        6762.3594    
        24   0.092552248    176.85332      23.385868     -13075.291     -13051.905      7110.1396      16604.795      7318.8479      6893.8752      7117.6957    
        25   0.09691103     168.62753      22.298146     -13074.185     -13051.887      7467.6029      16604.795      7679.8969      7252.6643      7470.2475    
        26   0.10255043     160.40239      21.210509     -13073.079     -13051.869      7823.7835      16604.795      8038.9575      7610.1862      7822.2069    
        27   0.10605991     152.20921      20.1271       -13071.976     -13051.849      8177.9628      16604.795      8396.0136      7966.678       8171.1966    
        28   0.10976142     144.0791       19.05203      -13070.88      -13051.828      8528.4966      16604.795      8749.2124      8319.9752      8516.3021    
        29   0.11320992     136.04256      17.989333     -13069.796     -13051.807      8872.6192      16604.795      9096.5241      8666.1162      8855.2173    
        30   0.11683813     128.12958      16.942975     -13068.728     -13051.785      9209.5622      16604.795      9436.5312      9005.602       9186.5533    
        31   0.12018682     120.36964      15.916854     -13067.679     -13051.762      9537.6509      16604.795      9767.9064      9335.8419      9509.2042    
        32   0.12431477     112.79117      14.914729     -13066.654     -13051.739      9855.0435      16604.795      10088.254      9655.4709      9821.4053    
        33   0.12911397     105.42148      13.940212     -13065.656     -13051.716      10162.855      16604.795      10398.707      9965.4439      10124.413    
        34   0.13266771     98.286994      12.996797     -13064.69      -13051.693      10459.543      16604.795      10697.564      10264.623      10416.442    
        35   0.13594018     91.413067      12.087836     -13063.758     -13051.67       10742.706      16604.795      10982.602      10550.52       10694.995    
        36   0.13929847     84.823688      11.216502     -13062.864     -13051.647      11011.279      16604.795      11252.456      10821.974      10959.407    
        37   0.14258113     78.541582      10.385799     -13062.011     -13051.625      11265.259      16604.795      11508.081      11078.439      11209.256    
        38   0.14597858     72.588174      9.5985614     -13061.202     -13051.603      11504.138      16604.795      11748.39       11319.647      11444.377    
        39   0.14933077     66.983423      8.8574276     -13060.439     -13051.582      11726.959      16604.795      11972.536      11544.853      11663.488    
        40   0.1537307      61.745823      8.1648433     -13059.727     -13051.562      11933.119      16604.795      12179.622      11753.546      11866.189    
        41   0.15879293     56.892308      7.5230479     -13059.066     -13051.542      12121.126      16604.795      12368.642      11944.011      12050.726    
        42   0.16405816     52.438134      6.9340584     -13058.458     -13051.524      12290.478      16604.795      12538.877      12115.614      12216.944    
        43   0.16943525     48.396955      6.3996807     -13057.907     -13051.507      12441.331      16604.795      12690.102      12268.923      12364.969    
        44   0.17543335     44.780808      5.9215063     -13057.412     -13051.491      12573.184      16604.795      12821.817      12403.472      12494.265    
        45   0.18179415     41.599967      5.5008938     -13056.976     -13051.475      12684.907      16604.795      12932.945      12518.067      12603.71     
        46   0.18812739     38.862918      5.1389652     -13056.6       -13051.461      12777.032      16604.795      13023.765      12613.395      12693.938    
        47   0.19364889     36.576305      4.8365992     -13056.284     -13051.447      12849.03       16604.795      13094.101      12688.484      12764.504    
        48   0.19799415     34.744854      4.5944207     -13056.029     -13051.434      12901.183      16604.795      13144.026      12743.538      12815.986    
        49   0.20246395     33.371355      4.4127986     -13055.835     -13051.422      12934.208      16604.795      13175.016      12779.078      12848.53     
        50   0.20684717     32.456622      4.2918407     -13055.702     -13051.411      12947.555      16604.795      13185.992      12794.703      12861.971    
        51   0.21246377     31.99949       4.2313926     -13055.631     -13051.399      12941.385      16604.795      13177.259      12790.447      12856.45     
        52   0.21808009     31.996816      4.2310391     -13055.619     -13051.388      12915.881      16604.795      13148.897      12766.914      12831.832    
        53   0.2235266      32.443508      4.2901066     -13055.667     -13051.377      12871.059      16604.795      13100.74       12724.403      12788.035    
        54   0.22872503     33.332569      4.4076699     -13055.774     -13051.366      12807.842      16604.795      13033.948      12663.476      12726.1      
        55   0.23431272     34.655134      4.5825568     -13055.937     -13051.355      12726.605      16604.795      12948.847      12584.345      12646.622    
        56   0.2386691      36.400515      4.813354      -13056.157     -13051.343      12627.41       16604.795      12845.375      12487.238      12549.617    
        57   0.24436817     38.556251      5.0984136     -13056.43      -13051.331      12511.263      16604.795      12725.143      12372.738      12435.909    
        58   0.24981481     41.108218      5.4358683     -13056.754     -13051.319      12378.902      16604.795      12588.672      12241.833      12306.2      
        59   0.25424819     44.040777      5.8236497     -13057.129     -13051.305      12231.351      16604.795      12436.862      12095.659      12161.534    
        60   0.25870911     47.33688       6.2595037     -13057.55      -13051.291      12069.623      16604.795      12269.822      11935.757      12003.291    
        61   0.26289715     50.978122      6.7409966     -13058.016     -13051.275      11893.841      16604.795      12088.2        11762.122      11831.202    
        62   0.26733785     54.944874      7.2655326     -13058.524     -13051.259      11705.152      16604.795      11894.108      11575.153      11646.195    
        63   0.2725515      59.216479      7.8303803     -13059.071     -13051.241      11504.669      16604.795      11688.336      11375.454      11450.219    
        64   0.27833401     63.771329      8.4326824     -13059.654     -13051.222      11293.339      16604.795      11470.689      11164.847      11244.482    
        65   0.28251106     68.586963      9.0694686     -13060.27      -13051.201      11072.814      16604.795      11243.455      10945.545      11029.441    
        66   0.28680873     73.640081      9.7376583     -13060.916     -13051.179      10843.178      16604.795      11007.688      10717.052      10804.795    
        67   0.29101215     78.906769      10.434089     -13061.589     -13051.154      10604.054      16604.795      10762.754      10478.187      10571.223    
        68   0.2955499      84.362711      11.155545     -13062.284     -13051.128      10360.642      16604.795      10513.188      10235.011      10333.726    
        69   0.30023923     89.983284      11.898771     -13062.999     -13051.101      10112.852      16604.795      10258.498      9987.9164      10092.141    
        70   0.30595794     95.743509      12.660464     -13063.731     -13051.071      9861.1811      16604.795      9999.1846      9737.8197      9846.539     
        71   0.31069319     101.61814      13.437285     -13064.476     -13051.039      9604.5011      16604.795      9735.503       9482.486       9595.5143    
        72   0.31491826     107.58207      14.225913     -13065.23      -13051.004      9347.3066      16604.795      9471.7683      9225.5298      9344.6217    
        73   0.31929268     113.61015      15.023026     -13065.991     -13050.968      9089.7157      16604.795      9207.6818      8968.3028      9093.1624    
        74   0.3236571      119.67734      15.825309     -13066.755     -13050.93       8831.5035      16604.795      8943.292       8710.8475      8840.3711    
        75   0.32814352     125.75907      16.629515     -13067.518     -13050.889      8574.7689      16604.795      8680.1953      8454.2258      8589.8856    
        76   0.33339827     131.8311       17.432439     -13068.278     -13050.846      8322.1669      16604.795      8420.6807      8202.0335      8343.7866    
        77   0.33903354     137.86967      18.230938     -13069.032     -13050.801      8073.345       16604.795      8165.3613      7953.4341      8101.2396    
        78   0.34314966     143.85173      19.021965     -13069.775     -13050.754      7827.8983      16604.795      7913.955       7707.2708      7862.4691    
        79   0.34745791     149.75462      19.802522     -13070.507     -13050.704      7587.7213      16604.795      7666.3598      7466.7503      7630.0537    
        80   0.35160341     155.55663      20.56974      -13071.223     -13050.653      7354.8279      16604.795      7426.1848      7233.5686      7404.7304    
        81   0.35607773     161.23727      21.320909     -13071.92      -13050.6        7131.0645      16604.795      7197.3533      7009.4338      7186.4064    
        82   0.36077387     166.7767       22.053405     -13072.598     -13050.544      6916.2366      16604.795      6976.5039      6794.8039      6977.402     
        83   0.36657411     172.15578      22.764697     -13073.252     -13050.487      6709.6257      16604.795      6764.0098      6588.6186      6776.2487    
        84   0.37149671     177.35676      23.452439     -13073.881     -13050.429      6512.5394      16604.795      6561.5822      6392.3633      6583.6727    
        85   0.37557409     182.36334      24.114475     -13074.483     -13050.369      6327.3134      16604.795      6371.4368      6206.3477      6404.1556    
        86   0.37985664     187.16016      24.748774     -13075.056     -13050.307      6154.2815      16604.795      6193.5736      6031.6772      6237.5938    
        87   0.38437775     191.73317      25.353476     -13075.598     -13050.244      5994.4355      16604.795      6029.7931      5869.648       6083.8653    
        88   0.38886079     196.06952      25.926886     -13076.107     -13050.181      5846.9401      16604.795      5877.7048      5721.7162      5941.3994    
        89   0.39438753     200.15757      26.467462     -13076.583     -13050.115      5710.1679      16604.795      5736.893       5584.0699      5809.5409    
        90   0.3998812      203.98732      26.973882     -13077.023     -13050.05       5587.9825      16604.795      5612.0467      5460.4875      5691.4133    
        91   0.40389191     207.55038      27.445036     -13077.428     -13049.983      5481.4524      16604.795      5503.0712      5353.1352      5588.1507    
        92   0.4083608      210.83938      27.879951     -13077.795     -13049.915      5388.1127      16604.795      5406.5468      5259.2558      5498.5355    
        93   0.41270367     213.84809      28.277802     -13078.125     -13049.847      5309.4165      16604.795      5324.3212      5179.0314      5424.897     
        94   0.41722594     216.57197      28.637989     -13078.417     -13049.779      5244.8096      16604.795      5258.7834      5112.0615      5363.584     
        95   0.42195509     219.00799      28.960112     -13078.67      -13049.71       5195.2277      16604.795      5207.4279      5060.2294      5318.0258    
        96   0.42778109     221.15431      29.243927     -13078.885     -13049.641      5158.6866      16604.795      5169.9855      5022.1627      5283.9118    
        97   0.43242156     223.01037      29.489359     -13079.061     -13049.572      5135.7333      16604.795      5146.6228      4997.2132      5263.3638    
        98   0.43654153     224.57703      29.696524     -13079.199     -13049.502      5127.3866      16604.795      5137.6918      4986.4256      5258.0425    
        99   0.44097074     225.85658      29.865723     -13079.299     -13049.433      5132.8014      16604.795      5143.2672      4989.8688      5265.2681    
       100   0.44567998     226.85224      29.997381     -13079.361     -13049.364      5152.8283      16604.795      5164.139       5008.4225      5285.9235    
       101   0.45006385     227.56844      30.092087     -13079.386     -13049.294      5185.7726      16604.795      5198.4304      5038.9542      5319.933     
       102   0.4556144      228.01098      30.150605     -13079.376     -13049.225      5231.5994      16604.795      5246.6322      5081.222       5366.9442    
       103   0.46117722     228.18667      30.173837     -13079.33      -13049.157      5288.6005      16604.795      5304.9956      5134.2801      5426.5259    
       104   0.46525051     228.10333      30.162817     -13079.251     -13049.088      5357.4441      16604.795      5375.0033      5199.6995      5497.6295    
       105   0.46955285     227.7698       30.118713     -13079.139     -13049.02       5438.5499      16604.795      5457.5653      5278.2249      5579.8596    
       106   0.47372453     227.19574      30.042803     -13078.995     -13048.952      5527.8377      16604.795      5549.207       5365.1186      5669.1874    
       107   0.47836614     226.39172      29.936485     -13078.821     -13048.885      5628.1433      16604.795      5653.4896      5461.7685      5769.1717    
       108   0.48322836     225.36936      29.801295     -13078.619     -13048.818      5737.8423      16604.795      5766.8346      5567.6444      5879.048     
       109   0.48909681     224.14079      29.638837     -13078.39      -13048.751      5855.4676      16604.795      5889.1161      5682.9105      5994.3762    
       110   0.49361133     222.71855      29.45077      -13078.136     -13048.685      5981.2761      16604.795      6018.9676      5805.6696      6119.1912    
       111   0.49719081     221.11583      29.238838     -13077.858     -13048.619      6114.4133      16604.795      6156.5494      5935.816       6250.8745    
       112   0.50156263     219.34659      29.004886     -13077.559     -13048.554      6251.6124      16604.795      6299.2911      6068.6661      6386.88      
       113   0.50556443     217.42521      28.750816     -13077.24      -13048.489      6394.3851      16604.795      6446.5356      6208.2013      6528.4185    
       114   0.50988325     215.36612      28.478536     -13076.903     -13048.425      6543.666       16604.795      6600.6531      6354.8935      6675.4516    
       115   0.51438852     213.18394      28.189979     -13076.551     -13048.361      6698.3215      16604.795      6761.3086      6504.9539      6828.7022    
       116   0.52039373     210.89367      27.88713      -13076.185     -13048.298      6854.3564      16604.795      6923.2503      6657.0471      6982.7718    
       117   0.52459951     208.51049      27.571995     -13075.807     -13048.235      7012.4819      16604.795      7087.1369      6811.8006      7138.5083    
       118   0.52842913     206.04942      27.24656      -13075.419     -13048.172      7171.9708      16604.795      7252.4182      6969.5044      7293.9898    
       119   0.53279052     203.52525      26.912781     -13075.023     -13048.11       7331.6934      16604.795      7418.6186      7127.526       7448.9354    
       120   0.53688642     200.95281      26.572619     -13074.621     -13048.048      7491.555       16604.795      7584.5967      7283.8551      7606.2131    
       121   0.54106711     198.34684      26.228023     -13074.215     -13047.987      7651.6466      16604.795      7751.0705      7439.8153      7764.054     
       122   0.54567425     195.72158      25.880876     -13073.807     -13047.926      7809.6566      16604.795      7914.4448      7595.4795      7919.0455    
       123   0.55143083     193.09078      25.532997     -13073.399     -13047.866      7966.5459      16604.795      8078.039       7750.1811      8071.4178    
       124   0.55575161     190.46798      25.186177     -13072.992     -13047.806      8121.263       16604.795      8240.0565      7902.6201      8221.1125    
       125   0.56013365     187.86619      24.842134     -13072.588     -13047.746      8273.5502      16604.795      8398.7561      8053.0421      8368.8523    
       126   0.56551788     185.29768      24.502492     -13072.189     -13047.686      8421.4097      16604.795      8551.9292      8198.6467      8513.6531    
       127   0.5701494      182.77436      24.168826     -13071.796     -13047.627      8563.866       16604.795      8699.9866      8338.9917      8652.6197    
       128   0.57541707     180.30751      23.842626     -13071.411     -13047.569      8702.2671      16604.795      8844.3262      8475.4178      8787.0575    
       129   0.58143059     177.90751      23.525266     -13071.035     -13047.51       8835.545       16604.795      8983.3121      8607.6002      8915.7226    
       130   0.58562892     175.58385      23.218002     -13070.67      -13047.452      8962.6755      16604.795      9116.193       8733.7847      9038.0489    
       131   0.58918855     173.34539      22.922004     -13070.316     -13047.394      9084.2717      16604.795      9243.2258      8853.541       9156.0482    
       132   0.59348982     171.20021      22.63834      -13069.974     -13047.336      9200.238       16604.795      9364.1039      8969.4411      9267.1689    
       133   0.59799967     169.15557      22.36797      -13069.646     -13047.279      9309.0825      16604.795      9477.722       9077.5399      9371.9857    
       134   0.60225588     167.21783      22.111737     -13069.333     -13047.221      9410.5729      16604.795      9583.8556      9178.4922      9469.3709    
       135   0.60749337     165.39234      21.870347     -13069.034     -13047.164      9504.9272      16604.795      9682.6945      9272.4421      9559.6448    
       136   0.61299364     163.68364      21.644399     -13068.751     -13047.107      9592.1509      16604.795      9773.7857      9359.6504      9643.0168    
       137   0.61729642     162.09554      21.4344       -13068.484     -13047.05       9672.8416      16604.795      9858.1535      9441.4152      9718.956     
       138   0.62186206     160.63084      21.240719     -13068.234     -13046.993      9746.2572      16604.795      9934.2294      9516.4758      9788.0663    
       139   0.62615669     159.29138      21.063597     -13068         -13046.936      9811.5882      16604.795      10002.648      9583.3924      9848.7239    
       140   0.63056448     158.07813      20.903165     -13067.783     -13046.88       9870.4589      16604.795      10064.019      9643.8319      9903.5261    
       141   0.63544659     156.99127      20.759447     -13067.582     -13046.823      9921.8723      16604.795      10117.833      9696.4824      9951.3014    
       142   0.64149881     156.03027      20.632371     -13067.399     -13046.766      9967.201       16604.795      10165.106      9742.9641      9993.5334    
       143   0.64595831     155.19369      20.521747     -13067.231     -13046.71       10005.728      16604.795      10204.605      9784.1735      10028.404    
       144   0.6498757      154.4792       20.427268     -13067.08      -13046.653      10036.271      16604.795      10235.379      9817.3786      10056.055    
       145   0.65422039     153.8839       20.34855      -13066.945     -13046.596      10061.292      16604.795      10260.304      9845.59        10077.982    
       146   0.65849081     153.40436      20.285139     -13066.824     -13046.539      10080.731      16604.795      10279.057      9868.3405      10094.795    
       147   0.66300921     153.03639      20.236481     -13066.719     -13046.482      10092.236      16604.795      10290.535      9882.9021      10103.272    
       148   0.66807581     152.77487      20.201899     -13066.627     -13046.425      10098.381      16604.795      10295.641      9892.9468      10106.557    
       149   0.67389306     152.61441      20.180681     -13066.548     -13046.368      10099.837      16604.795      10295.284      9898.6147      10105.613    
       150   0.67811134     152.54937      20.17208      -13066.482     -13046.31       10098.008      16604.795      10290.175      9901.6229      10102.226    
       151   0.68246692     152.57332      20.175247     -13066.428     -13046.252      10091.879      16604.795      10280.394      9900.7019      10094.541    
       152   0.68677119     152.67948      20.189286     -13066.384     -13046.194      10080.46       16604.795      10266.151      9894.22        10081.009    
       153   0.6913498      152.86107      20.213297     -13066.35      -13046.136      10065.796      16604.795      10247.686      9885.3465      10064.354    
       154   0.6959909      153.11101      20.246348     -13066.324     -13046.078      10048.982      16604.795      10225.977      9875.1062      10045.864    
       155   0.70207515     153.42171      20.287432     -13066.307     -13046.019      10028.198      16604.795      10199.656      9860.8486      10024.09     
       156   0.70694652     153.78558      20.335549     -13066.296     -13045.96       10005.122      16604.795      10170.781      9844.0908      10000.495    
       157   0.71107956     154.19524      20.389719     -13066.291     -13045.901      9982.2754      16604.795      10142.871      9826.9291      9977.0262    
       158   0.71521316     154.64314      20.448946     -13066.291     -13045.842      9957.9996      16604.795      10112.654      9808.6739      9952.6708    
       159   0.71935584     155.12182      20.512244     -13066.294     -13045.782      9932.0401      16604.795      10079.912      9789.8431      9926.3647    
       160   0.72370263     155.62403      20.578652     -13066.301     -13045.722      9906.2622      16604.795      10047.153      9770.4184      9901.2155    
       161   0.72869257     156.14254      20.647216     -13066.309     -13045.662      9879.9085      16604.795      10013.699      9750.7258      9875.3006    
       162   0.73476799     156.67038      20.717015     -13066.319     -13045.602      9855.7483      16604.795      9981.6041      9734.0887      9851.5522    
       163   0.73915312     157.20092      20.78717      -13066.328     -13045.541      9830.3729      16604.795      9949.1359      9715.2863      9826.6965    
       164   0.74343978     157.72777      20.856837     -13066.337     -13045.48       9806.4657      16604.795      9916.8688      9698.193       9804.3353    
       165   0.74761066     158.24513      20.925248     -13066.344     -13045.419      9784.51        16604.795      9885.2735      9684.9727      9783.2838    
       166   0.7520918      158.7476       20.991692     -13066.349     -13045.357      9766.0955      16604.795      9857.1779      9675.2609      9765.8478    
       167   0.75633437     159.23017      21.055504     -13066.351     -13045.296      9750.545       16604.795      9832.0949      9667.1205      9752.4194    
       168   0.76187513     159.68842      21.116099     -13066.35      -13045.234      9734.6312      16604.795      9806.935       9658.3229      9738.6356    
       169   0.76723486     160.11834      21.172949     -13066.345     -13045.172      9721.3662      16604.795      9785.1121      9651.9028      9727.0838    
       170   0.77142483     160.51639      21.225584     -13066.335     -13045.109      9712.3684      16604.795      9766.3133      9651.6864      9719.1056    
       171   0.77556522     160.87978      21.273637     -13066.321     -13045.047      9705.2366      16604.795      9748.4662      9653.3924      9713.8512    
       172   0.77965153     161.20643      21.316831     -13066.301     -13044.984      9701.6338      16604.795      9734.0634      9657.3053      9713.5328    
       173   0.78415642     161.49464      21.354941     -13066.277     -13044.922      9702.2797      16604.795      9724.4924      9665.3362      9717.0104    
       174   0.78908292     161.7434       21.387835     -13066.247     -13044.859      9706.118       16604.795      9717.9996      9677.646       9722.7083    
       175   0.79510512     161.95255      21.415492     -13066.211     -13044.796      9714.5396      16604.795      9716.0939      9693.5194      9734.0054    
       176   0.79948811     162.12239      21.437951     -13066.171     -13044.733      9726.5277      16604.795      9716.2825      9713.6645      9749.6359    
       177   0.8035617      162.25384      21.455333     -13066.125     -13044.669      9742.2044      16604.795      9720.9105      9736.6388      9769.0641    
       178   0.80801599     162.34839      21.467836     -13066.074     -13044.606      9760.0803      16604.795      9728.8875      9761.2874      9790.0659    
       179   0.81256825     162.40806      21.475726     -13066.019     -13044.543      9781.0191      16604.795      9739.3556      9790.1873      9813.5144    
       180   0.81697973     162.43553      21.479358     -13065.959     -13044.479      9805.1548      16604.795      9752.7061      9822.1629      9840.5955    
       181   0.82255413     162.43403      21.479159     -13065.895     -13044.416      9831.1561      16604.795      9768.8606      9855.6023      9869.0053    
       182   0.82814171     162.40738      21.475635     -13065.828     -13044.352      9860.7032      16604.795      9788.349       9892.0035      9901.7572    
       183   0.83233468     162.35978      21.469341     -13065.758     -13044.289      9893.8959      16604.795      9812.3395      9930.6667      9938.6816    
       184   0.83650381     162.29582      21.460884     -13065.686     -13044.225      9929.1828      16604.795      9837.9393      9971.6308      9977.9783    
       185   0.84060333     162.22076      21.450958     -13065.613     -13044.162      9964.1639      16604.795      9863.3289      10013.16       10016.003    
       186   0.84498257     162.14001      21.44028      -13065.538     -13044.098      10001.692      16604.795      9891.8705      10056.042      10057.163    
       187   0.84989912     162.0592       21.429595     -13065.464     -13044.034      10041.78       16604.795      9923.4677      10101.342      10100.53     
       188   0.85592966     161.98459      21.41973      -13065.39      -13043.97       10081.663      16604.795      9954.1092      10146.5        10144.38     
       189   0.86049649     161.92263      21.411536     -13065.318     -13043.907      10123.085      16604.795      9986.9641      10193.383      10188.909    
       190   0.86473768     161.87954      21.405838     -13065.249     -13043.843      10164.277      16604.795      10022.308      10238.124      10232.398    
       191   0.86896041     161.86181      21.403494     -13065.182     -13043.779      10204.487      16604.795      10055.6        10281.784      10276.077    
       192   0.87373493     161.87629      21.405409     -13065.12      -13043.715      10244.886      16604.795      10087.958      10326.505      10320.194    
       193   0.87804227     161.92981      21.412485     -13065.063     -13043.651      10285.259      16604.795      10122.207      10370.987      10362.585    
       194   0.88341384     162.02902      21.425604     -13065.012     -13043.587      10323.198      16604.795      10154.878      10411.792      10402.924    
       195   0.88897127     162.18039      21.445621     -13064.968     -13043.522      10359.791      16604.795      10186.81       10449.39       10443.173    
       196   0.89335032     162.39039      21.473389     -13064.931     -13043.458      10393.92       16604.795      10217.367      10485.195      10479.197    
       197   0.89762029     162.66537      21.509751     -13064.903     -13043.393      10424.594      16604.795      10244.247      10516.927      10512.607    
       198   0.90170054     163.01118      21.555478     -13064.884     -13043.329      10452.379      16604.795      10269.048      10545.668      10542.42     
       199   0.90811802     163.43331      21.611298     -13064.875     -13043.263      10478.032      16604.795      10291.479      10573.175      10569.442    
       200   0.91371431     163.93718      21.677926     -13064.876     -13043.198      10500.763      16604.795      10312.176      10595.962      10594.153    
       201   0.91923754     164.52768      21.75601      -13064.889     -13043.133      10519.222      16604.795      10329.028      10613.983      10614.655    
       202   0.92360636     165.20909      21.846115     -13064.913     -13043.067      10534.041      16604.795      10343.519      10626.233      10632.369    
       203   0.92799821     165.98524      21.948747     -13064.95      -13043.001      10544.695      16604.795      10354.257      10635.856      10643.971    
       204   0.93199772     166.85945      22.064347     -13064.999     -13042.934      10551.518      16604.795      10361.878      10641.634      10651.041    
       205   0.93630885     167.83451      22.193282     -13065.061     -13042.867      10554.755      16604.795      10366.211      10643.098      10654.956    
       206   0.94099878     168.91262      22.335844     -13065.136     -13042.8        10552.223      16604.795      10365.278      10639.132      10652.259    
       207   0.94699592     170.0952       22.49222      -13065.225     -13042.732      10544.37       16604.795      10358.863      10629.081      10645.166    
       208   0.95169231     171.38278      22.662481     -13065.327     -13042.664      10531.391      16604.795      10349.519      10611.627      10633.029    
       209   0.95599462     172.77543      22.846635     -13065.442     -13042.596      10512.611      16604.795      10334.573      10588.458      10614.804    
       210   0.96045872     174.27257      23.044606     -13065.571     -13042.526      10488.783      16604.795      10314.433      10560.129      10591.787    
       211   0.96492607     175.87285      23.256217     -13065.713     -13042.457      10460.808      16604.795      10290.412      10527.779      10564.234    
       212   0.96903915     177.57424      23.481197     -13065.868     -13042.386      10428.832      16604.795      10263.129      10491.003      10532.365    
       213   0.97460035     179.37366      23.71914      -13066.035     -13042.315      10390.68       16604.795      10230.245      10446.948      10494.847    
       214   0.98009621     181.26718      23.969527     -13066.213     -13042.244      10347.378      16604.795      10191.983      10398.975      10451.175    
       215   0.98445747     183.25045      24.231781     -13066.404     -13042.172      10299.491      16604.795      10151.865      10344.993      10401.615    
       216   0.98880462     185.31847      24.505241     -13066.604     -13042.099      10247.452      16604.795      10106.979      10286.252      10349.125    
       217   0.9928734      187.46533      24.789127     -13066.815     -13042.026      10190.902      16604.795      10055.406      10224.088      10293.212    
       218   0.99707989     189.68451      25.082576     -13067.034     -13041.951      10130.171      16604.795      10000.582      10157.03       10232.901    
       219   1.0018261      191.96868      25.384619     -13067.261     -13041.877      10064.49       16604.795      9943.3736      10083.923      10166.174    
       220   1.0077925      194.3099       25.694206     -13067.495     -13041.801      9996.4275      16604.795      9884.0547      10008.592      10096.635    
       221   1.0124893      196.69991      26.010244     -13067.735     -13041.725      9925.5177      16604.795      9820.4243      9931.5883      10024.54     
       222   1.0166885      199.12974      26.331549     -13067.98      -13041.648      9852.5456      16604.795      9756.0082      9851.7451      9949.8835    
       223   1.0209329      201.58977      26.656845     -13068.228     -13041.571      9777.6625      16604.795      9689.1606      9769.7962      9874.0306    
       224   1.0254212      204.07003      26.984818     -13068.478     -13041.493      9699.613       16604.795      9618.5611      9684.122       9796.1559    
       225   1.0296758      206.56037      27.314123     -13068.728     -13041.414      9620.3836      16604.795      9547.8612      9597.8787      9715.4108    
       226   1.0350353      209.05008      27.643347     -13068.978     -13041.335      9539.4051      16604.795      9476.0608      9509.5246      9632.63      
       227   1.0404571      211.52816      27.971031     -13069.226     -13041.255      9458.2791      16604.795      9402.9192      9421.0572      9550.8608    
       228   1.0448634      213.98347      28.295703     -13069.47      -13041.174      9377.5445      16604.795      9331.3228      9333.0559      9468.2549    
       229   1.0494669      216.40475      28.615877     -13069.709     -13041.094      9296.7912      16604.795      9259.1296      9245.7669      9385.477     
       230   1.0536661      218.78077      28.930066     -13069.942     -13041.012      9219.3798      16604.795      9189.5803      9161.7336      9306.8254    
       231   1.057843       221.10012      29.23676      -13070.167     -13040.93       9143.0254      16604.795      9121.1595      9078.7638      9229.1528    
       232   1.062215       223.35138      29.534452     -13070.383     -13040.848      9066.7113      16604.795      9052.4235      8995.8211      9151.8893    
       233   1.0678832      225.52346      29.821673     -13070.587     -13040.766      8993.6012      16604.795      8986.5311      8915.7299      9078.5428    
       234   1.072984       227.60549      30.096986     -13070.78      -13040.683      8925.4002      16604.795      8925.1035      8841.4808      9009.6162    
       235   1.0773478      229.5867       30.358968     -13070.959     -13040.6        8861.1775      16604.795      8868.4855      8772.5617      8942.4854    
       236   1.0817592      231.45666      30.606238     -13071.123     -13040.517      8800.0453      16604.795      8813.3849      8707.0907      8879.6602    
       237   1.0863286      233.20543      30.837483     -13071.271     -13040.433      8742.0765      16604.795      8761.7061      8643.1876      8821.3359    
       238   1.0905302      234.82348      31.051443     -13071.401     -13040.35       8688.821       16604.795      8715.1661      8584.7554      8766.5415    
       239   1.0960639      236.3018       31.246926     -13071.513     -13040.266      8642.4352      16604.795      8674.1576      8534.1623      8718.9855    
       240   1.1012993      237.63216      31.422844     -13071.605     -13040.183      8603.507       16604.795      8640.142       8491.6085      8678.7704    
       241   1.105541       238.80699      31.578195     -13071.677     -13040.099      8570.2466      16604.795      8612.0858      8455.0444      8643.6097    
       242   1.11009        239.81913      31.712034     -13071.728     -13040.016      8544.2173      16604.795      8588.9531      8427.3013      8616.3975    
       243   1.114391       240.662        31.823489     -13071.756     -13039.932      8525.7945      16604.795      8574.4288      8405.8642      8597.0905    
       244   1.1186149      241.33018      31.911845     -13071.761     -13039.849      8513.2376      16604.795      8565.9353      8391.4808      8582.2965    
       245   1.1231941      241.81923      31.976513     -13071.743     -13039.767      8509.4577      16604.795      8564.9233      8386.031       8577.4189    
       246   1.1289549      242.12521      32.016974     -13071.701     -13039.684      8515.4693      16604.795      8573.3489      8390.6579      8582.4011    
       247   1.1335551      242.24519      32.032839     -13071.635     -13039.602      8527.1191      16604.795      8587.3315      8402.3971      8591.6288    
       248   1.1377953      242.17724      32.023854     -13071.544     -13039.52       8547.0565      16604.795      8608.4016      8421.8407      8610.9273    
       249   1.1423728      241.92012      31.989854     -13071.429     -13039.439      8575.7296      16604.795      8638.4234      8450.8954      8637.8702    
       250   1.1467092      241.47355      31.930803     -13071.289     -13039.358      8614.2247      16604.795      8677.5927      8489.3201      8675.7613    
       251   1.1511912      240.83841      31.846817     -13071.124     -13039.277      8660.372       16604.795      8723.7966      8535.935       8721.3844    
       252   1.1561058      240.01662      31.738148     -13070.935     -13039.197      8715.8983      16604.795      8779.1228      8592.1597      8776.4123    
       253   1.1617447      239.01072      31.605135     -13070.723     -13039.118      8778.9085      16604.795      8840.7127      8658.7319      8837.2809    
       254   1.1662068      237.82417      31.448235     -13070.487     -13039.039      8850.2765      16604.795      8909.622       8735.1923      8906.0153    
       255   1.1704058      236.4617       31.268071     -13070.228     -13038.96       8929.7509      16604.795      8986.5279      8816.3846      8986.3403    
       256   1.174969       234.92888      31.065381     -13069.948     -13038.883      9016.7346      16604.795      9071.6935      8905.7362      9072.7742    
       257   1.1792856      233.23203      30.841001     -13069.646     -13038.805      9113.2951      16604.795      9166.7019      9005.9907      9167.1926    
       258   1.1837487      231.37849      30.595902     -13069.324     -13038.729      9215.7776      16604.795      9265.9043      9113.8674      9267.5611    
       259   1.1884007      229.37632      30.331149     -13068.984     -13038.652      9325.4683      16604.795      9372.4177      9228.0684      9375.9187    
       260   1.1941808      227.23424      30.047895     -13068.625     -13038.577      9441.501       16604.795      9484.6759      9347.415       9492.4122    
       261   1.1986347      224.96205      29.747436     -13068.25      -13038.502      9562.8989      16604.795      9601.9577      9473.2202      9613.5187    
       262   1.2027504      222.57025      29.431161     -13067.859     -13038.428      9692.0585      16604.795      9726.0295      9608.0726      9742.0734    
       263   1.2072749      220.06987      29.100528     -13067.455     -13038.354      9826.5593      16604.795      9855.2324      9749.3262      9875.1191    
       264   1.2117671      217.4726       28.757082     -13067.038     -13038.281      9964.9507      16604.795      9987.5144      9894.2759      10013.062    
       265   1.2162748      214.79067      28.402442     -13066.611     -13038.209      10107.128      16604.795      10124.35       10042.13       10154.903    
       266   1.2212524      212.03688      28.0383       -13066.175     -13038.137      10253.12       16604.795      10264.198      10193.978      10301.185    
       267   1.2272954      209.22453      27.666414     -13065.732     -13038.065      10403.042      16604.795      10408.925      10349.686      10450.516    
       268   1.2315791      206.36712      27.28857      -13065.283     -13037.995      10554.577      16604.795      10555.356      10506.982      10601.392    
       269   1.235689       203.47865      26.906619     -13064.831     -13037.924      10707.944      16604.795      10702.46       10667.055      10754.317    
       270   1.2399677      200.57332      26.522437     -13064.377     -13037.855      10863.213      16604.795      10851.524      10828.979      10909.135    
       271   1.244509       197.66541      26.137916     -13063.924     -13037.786      11018.305      16604.795      11000.27       10991.356      11063.29     
       272   1.2487976      194.7696       25.754994     -13063.472     -13037.717      11172.983      16604.795      11148.482      11153.565      11216.901    
       273   1.2543811      191.90049      25.375602     -13063.024     -13037.649      11327.39       16604.795      11296.638      11314.276      11371.256    
       274   1.2598059      189.07272      25.001677     -13062.583     -13037.581      11479.177      16604.795      11441.83       11472.929      11522.77     
       275   1.2641492      186.30088      24.635149     -13062.149     -13037.514      11629.303      16604.795      11585.359      11629.704      11672.844    
       276   1.2681525      183.59904      24.277876     -13061.725     -13037.447      11777.272      16604.795      11727.424      11783.366      11821.026    
       277   1.2725404      180.98112      23.9317       -13061.313     -13037.381      11921.913      16604.795      11866.641      11933.745      11965.353    
       278   1.2772017      178.46093      23.598447     -13060.913     -13037.315      12062.965      16604.795      12001.536      12081.634      12105.726    
       279   1.2816078      176.05191      23.279894     -13060.529     -13037.249      12198.459      16604.795      12130.481      12223.484      12241.414    
       280   1.2869819      173.76704      22.977759     -13060.162     -13037.184      12329.724      16604.795      12255.452      12360.614      12373.106    
       281   1.2924112      171.6187       22.693678     -13059.813     -13037.119      12454.142      16604.795      12374.953      12490.918      12496.556    
       282   1.296871       169.61868      22.429209     -13059.483     -13037.054      12573.595      16604.795      12489.339      12615.931      12615.516    
       283   1.3016479      167.77818      22.185834     -13059.175     -13036.99       12684.611      16604.795      12594.29       12732.95       12726.595    
       284   1.3058413      166.10771      21.964942     -13058.89      -13036.925      12790.223      16604.795      12694.943      12842.936      12832.79     
       285   1.3100114      164.61708      21.767832     -13058.629     -13036.861      12887.444      16604.795      12788.457      12944.26       12929.616    
       286   1.3146723      163.31518      21.595677     -13058.392     -13036.796      12977.065      16604.795      12874.106      13038.028      13019.062    
       287   1.3206622      162.20994      21.449527     -13058.182     -13036.732      13058.202      16604.795      12951.5        13122.977      13100.128    
       288   1.3259812      161.30858      21.330339     -13057.998     -13036.668      13132.078      16604.795      13021.023      13200.208      13175.002    
       289   1.3303987      160.61744      21.238947     -13057.842     -13036.603      13196.329      16604.795      13080.919      13268.197      13239.869    
       290   1.3350982      160.14163      21.176029     -13057.715     -13036.539      13251.452      16604.795      13133.148      13326.391      13294.816    
       291   1.3394392      159.88538      21.142145     -13057.616     -13036.474      13296.377      16604.795      13175.599      13374.31       13339.222    
       292   1.343927       159.85194      21.137723     -13057.546     -13036.409      13330.5        16604.795      13207.922      13410.966      13372.613    
       293   1.3489411      160.04326      21.163021     -13057.506     -13036.343      13356.374      16604.795      13231.459      13439.583      13398.08     
       294   1.3550135      160.46027      21.218164     -13057.496     -13036.277      13374.696      16604.795      13248.557      13459.888      13415.644    
       295   1.3593659      161.10296      21.303149     -13057.514     -13036.211      13381.83       16604.795      13255.082      13468.48       13421.929    
       296   1.3635906      161.97032      21.417842     -13057.562     -13036.144      13378.361      16604.795      13251.73       13465.019      13418.335    
       297   1.3680514      163.06019      21.561959     -13057.638     -13036.076      13366.633      16604.795      13240.324      13453.574      13406        
       298   1.3726997      164.36906      21.735035     -13057.743     -13036.008      13344.118      16604.795      13217.351      13431.691      13383.312    
       299   1.3770196      165.89225      21.936451     -13057.876     -13035.939      13312.733      16604.795      13185.586      13399.882      13352.731    
       300   1.3818628      167.62441      22.1655       -13058.035     -13035.869      13273.265      16604.795      13146.695      13360.17       13312.932    
       301   1.3876411      169.55908      22.421328     -13058.22      -13035.799      13225.123      16604.795      13100.77       13310.538      13264.061    
       302   1.3920896      171.6885       22.702908     -13058.43      -13035.727      13168.462      16604.795      13046.568      13252.199      13206.618    
       303   1.3965187      174.00413      23.009111     -13058.664     -13035.655      13103.844      16604.795      12984.92       13184.932      13141.679    
       304   1.4008713      176.49644      23.338677     -13058.92      -13035.582      13031.476      16604.795      12915.032      13110.888      13068.508    
       305   1.4054351      179.15509      23.690237     -13059.198     -13035.507      12951.796      16604.795      12838.438      13028.586      12988.364    
       306   1.4098865      181.96887      24.062312     -13059.494     -13035.432      12863.238      16604.795      12752.238      12937.702      12899.773    
       307   1.4154694      184.92569      24.453303     -13059.809     -13035.355      12768.993      16604.795      12660.541      12841.399      12805.039    
       308   1.4207737      188.01281      24.861523     -13060.139     -13035.278      12669.562      16604.795      12565.074      12739.033      12704.58     
       309   1.4250601      191.21679      25.285194     -13060.484     -13035.199      12564.188      16604.795      12464.398      12630.081      12598.083    
       310   1.4296462      194.52348      25.722449     -13060.842     -13035.12       12455.578      16604.795      12360.806      12517.033      12488.896    
       311   1.4339928      197.91823      26.171347     -13061.21      -13035.039      12343.822      16604.795      12253.539      12400.287      12377.64     
       312   1.4384246      201.38619      26.629926     -13061.587     -13034.957      12227.525      16604.795      12141.858      12279.457      12261.261    
       313   1.443362       204.91231      27.096195     -13061.97      -13034.874      12107.781      16604.795      12026.999      12156.201      12140.142    
       314   1.4495813      208.4807       27.568055     -13062.358     -13034.79       11984.707      16604.795      11909.245      12028.473      12016.404    
       315   1.4544307      212.07536      28.043389     -13062.749     -13034.705      11861.22       16604.795      11792.119      11899.444      11892.097    
       316   1.4587635      215.68057      28.520116     -13063.14      -13034.62       11737.573      16604.795      11675.696      11769.506      11767.518    
       317   1.4631014      219.28023      28.99611      -13063.529     -13034.533      11613.532      16604.795      11558.644      11639.267      11642.686    
       318   1.4670945      222.85849      29.469275     -13063.915     -13034.445      11490.674      16604.795      11441.677      11511.631      11518.715    
       319   1.4716393      226.39972      29.937544     -13064.295     -13034.357      11370.878      16604.795      11327.615      11388.223      11396.794    
       320   1.4766145      229.88821      30.398838     -13064.667     -13034.268      11250.488      16604.795      11212.964      11262.199      11276.299    
       321   1.4827477      233.30866      30.851134     -13065.03      -13034.178      11129.101      16604.795      11098.112      11135.12       11154.07     
       322   1.4874077      236.64634      31.292486     -13065.381     -13034.088      11014.222      16604.795      10990.881      11013.809      11037.978    
       323   1.4917826      239.88676      31.720976     -13065.718     -13033.997      10902.401      16604.795      10884.967      10896.881      10925.354    
       324   1.4961735      243.01595      32.134759     -13066.041     -13033.906      10797.554      16604.795      10787.027      10785.702      10819.934    
       325   1.5004723      246.02078      32.532098     -13066.347     -13033.815      10697.236      16604.795      10693.255      10679.207      10719.244    
       326   1.5048519      248.88885      32.911351     -13066.634     -13033.723      10600.733      16604.795      10603.34       10577.235      10621.624    
       327   1.5098724      251.6083       33.270953     -13066.902     -13033.631      10509.56       16604.795      10518.605      10481.159      10528.916    
       328   1.5152693      254.16807      33.609439     -13067.148     -13033.539      10425.467      16604.795      10439.863      10392.911      10443.626    
       329   1.5198221      256.55799      33.925465     -13067.372     -13033.446      10346.945      16604.795      10366.738      10311.027      10363.069    
       330   1.5243116      258.76873      34.217798     -13067.572     -13033.354      10276.299      16604.795      10301.503      10235.382      10292.011    
       331   1.528747       260.79219      34.485368     -13067.748     -13033.262      10215.825      16604.795      10246.818      10170.038      10230.619    
       332   1.5334124      262.62117      34.727219     -13067.898     -13033.17       10162.41       16604.795      10199.233      10111.685      10176.312    
       333   1.5376524      264.2493       34.942512     -13068.021     -13033.079      10117.792      16604.795      10159.644      10063.347      10130.385    
       334   1.5432537      265.67137      35.130557     -13068.118     -13032.988      10081.474      16604.795      10127.845      10023.612      10092.966    
       335   1.5485221      266.88321      35.290802     -13068.188     -13032.897      10053.83       16604.795      10104.402      9991.495       10065.595    
       336   1.5528665      267.88175      35.422841     -13068.229     -13032.806      10034.418      16604.795      10088.214      9969.6404      10045.401    
       337   1.5574761      268.66512      35.526429     -13068.243     -13032.717      10025.203      16604.795      10082.724      9957.2152      10035.669    
       338   1.5619197      269.23245      35.60145      -13068.229     -13032.627      10026.313      16604.795      10086.853      9956.1939      10035.892    
       339   1.5664104      269.58385      35.647915     -13068.186     -13032.539      10033.451      16604.795      10097.613      9961.3757      10041.364    
       340   1.5709743      269.72076      35.666019     -13068.117     -13032.451      10051.97       16604.795      10118.195      9978.6638      10059.05     
       341   1.5765899      269.64555      35.656074     -13068.019     -13032.363      10078.228      16604.795      10146.95       10002.72       10085.013    
       342   1.5814952      269.36137      35.618497     -13067.895     -13032.277      10113.561      16604.795      10183.615      10036.252      10120.816    
       343   1.5857791      268.87269      35.553877     -13067.745     -13032.191      10158.39       16604.795      10228.525      10080.989      10165.657    
       344   1.5903304      268.18499      35.46294      -13067.568     -13032.106      10214.023      16604.795      10284.589      10136.85       10220.629    
       345   1.594686       267.30458      35.346521     -13067.368     -13032.021      10277.837      16604.795      10349.324      10201.372      10282.813    
       346   1.5992197      266.23882      35.205592     -13067.143     -13031.938      10347.872      16604.795      10418.089      10273.167      10352.361    
       347   1.6041629      264.99572      35.041212     -13066.896     -13031.855      10424.99       16604.795      10493.681      10350.643      10430.645    
       348   1.6100617      263.5841       34.85455      -13066.627     -13031.773      10508.999      16604.795      10576.842      10436.045      10514.111    
       349   1.6146439      262.01369      34.64689      -13066.338     -13031.692      10600.382      16604.795      10667.1        10529.214      10604.833    
       350   1.6189383      260.29476      34.41959      -13066.031     -13031.611      10698.238      16604.795      10762.827      10628.788      10703.1      
       351   1.6234872      258.43841      34.174119     -13065.705     -13031.531      10803.917      16604.795      10865.865      10736.607      10809.28     
       352   1.6280234      256.4562       33.912005     -13065.364     -13031.452      10914.367      16604.795      10971.732      10851.572      10919.798    
       353   1.6325186      254.36017      33.634841     -13065.009     -13031.374      11029.081      16604.795      11082.206      10970.044      11034.993    
       354   1.6376685      252.16311      33.344317     -13064.641     -13031.296      11148.144      16604.795      11196.539      11092.851      11155.042    
       355   1.6433408      249.878        33.042149     -13064.262     -13031.22       11272.181      16604.795      11317.19       11219.827      11279.527    
       356   1.6476116      247.51802      32.730082     -13063.873     -13031.143      11397.999      16604.795      11439.672      11349.302      11405.023    
       357   1.6519096      245.09673      32.409907     -13063.478     -13031.068      11527.614      16604.795      11563.453      11483.688      11535.702    
       358   1.6563132      242.62775      32.083427     -13063.076     -13030.993      11660.583      16604.795      11689.602      11621.755      11670.391    
       359   1.6610572      240.12486      31.752462     -13062.67      -13030.918      11792.969      16604.795      11814.866      11759.462      11804.578    
       360   1.6654814      237.60218      31.41888      -13062.263     -13030.844      11928.276      16604.795      11942.66       11900.334      11941.833    
       361   1.6709503      235.07392      31.08456      -13061.855     -13030.77       12064.915      16604.795      12073.368      12041.196      12080.182    
       362   1.6763122      232.5539       30.751329     -13061.449     -13030.697      12199.975      16604.795      12201.039      12182.204      12216.68     
       363   1.6805794      230.05545      30.420951     -13061.046     -13030.625      12334.881      16604.795      12328.252      12323.377      12353.015    
       364   1.6852379      227.59198      30.095199     -13060.647     -13030.552      12468.036      16604.795      12453.654      12462.635      12487.818    
       365   1.689497       225.17696      29.775854     -13060.256     -13030.48       12598.755      16604.795      12578.12       12597.697      12620.448    
       366   1.693997       222.82338      29.464632     -13059.873     -13030.408      12729.527      16604.795      12701.141      12734.951      12752.488    
       367   1.6986937      220.54349      29.163155     -13059.5       -13030.337      12855.993      16604.795      12819.062      12866.506      12882.411    
       368   1.7045003      218.34924      28.873003     -13059.139     -13030.266      12980.072      16604.795      12934.603      12996.226      13009.387    
       369   1.7095456      216.25238      28.595728     -13058.79      -13030.195      13099.593      16604.795      13044.928      13122.782      13131.07     
       370   1.7136252      214.26377      28.332769     -13058.456     -13030.124      13214.671      16604.795      13152.196      13243.569      13248.249    
       371   1.7178701      212.39362      28.085472     -13058.138     -13030.053      13324.61       16604.795      13253.736      13359.679      13360.414    
       372   1.7220963      210.65169      27.855132     -13057.837     -13029.982      13430.962      16604.795      13351.42       13472.889      13468.577    
       373   1.7266454      209.04691      27.642926     -13057.554     -13029.911      13533.332      16604.795      13444.305      13582.221      13573.471    
       374   1.7316274      207.58748      27.449942     -13057.29      -13029.84       13627.67       16604.795      13530.304      13681.743      13670.963    
       375   1.7376627      206.28074      27.277147     -13057.046     -13029.769      13715.648      16604.795      13610.727      13774.761      13761.456    
       376   1.7423953      205.13296      27.125374     -13056.823     -13029.698      13797.567      16604.795      13684.36       13861.594      13846.748    
       377   1.7466799      204.15007      26.995402     -13056.622     -13029.626      13871.647      16604.795      13749.798      13941.347      13923.794    
       378   1.7511092      203.33705      26.887895     -13056.443     -13029.555      13938.552      16604.795      13808.79       14013.23       13993.635    
       379   1.7553929      202.69768      26.803349     -13056.286     -13029.483      13999.371      16604.795      13862.483      14077.621      14058.008    
       380   1.7597777      202.2349       26.742154     -13056.153     -13029.411      14052.293      16604.795      13908.761      14135.179      14112.939    
       381   1.7647528      201.95086      26.704595     -13056.043     -13029.339      14098.048      16604.795      13947.302      14184.549      14162.294    
       382   1.7707323      201.84675      26.690827     -13055.957     -13029.266      14136.945      16604.795      13978.868      14228.009      14203.959    
       383   1.7750996      201.92273      26.700874     -13055.893     -13029.192      14168.182      16604.795      14004.14       14263.374      14237.031    
       384   1.7791602      202.17803      26.734633     -13055.853     -13029.119      14191.938      16604.795      14022.089      14290.796      14262.93     
       385   1.7834832      202.61109      26.791898     -13055.836     -13029.044      14208.906      16604.795      14032.366      14310.052      14284.3      
       386   1.7879214      203.2193       26.872323     -13055.842     -13028.97       14218.94       16604.795      14036.953      14321.843      14298.023    
       387   1.7923843      203.99913      26.975444     -13055.87      -13028.894      14221.038      16604.795      14033.806      14325.238      14304.069    
       388   1.7976856      204.9463       27.100691     -13055.919     -13028.818      14215.992      16604.795      14024.714      14321.693      14301.569    
       389   1.80363        206.05543      27.247354     -13055.989     -13028.742      14204.698      16604.795      14010.266      14311.628      14292.201    
       390   1.8079681      207.32047      27.414634     -13056.079     -13028.664      14187.592      16604.795      13989.192      14295.481      14278.103    
       391   1.8124899      208.73504      27.601687     -13056.188     -13028.586      14163.017      16604.795      13960.685      14271.923      14256.442    
       392   1.8167341      210.29154      27.807508     -13056.315     -13028.508      14130.884      16604.795      13925.18       14240.321      14227.149    
       393   1.8212192      211.98144      28.030969     -13056.459     -13028.428      14096.384      16604.795      13887.768      14205.786      14195.598    
       394   1.8255508      213.79588      28.270898     -13056.619     -13028.348      14056.311      16604.795      13846.632      14164.032      14158.267    
       395   1.8311666      215.72528      28.526028     -13056.793     -13028.267      14010.043      16604.795      13799.188      14116.689      14114.253    
       396   1.8365554      217.75956      28.795028     -13056.981     -13028.186      13958.303      16604.795      13746.176      14064.272      14064.461    
       397   1.8410301      219.88838      29.076528     -13057.18      -13028.103      13902.735      16604.795      13691.065      14005.494      14011.645    
       398   1.8454331      222.10077      29.369079     -13057.39      -13028.02       13844.476      16604.795      13634.224      13943.169      13956.033    
       399   1.8495687      224.38512      29.671146     -13057.608     -13027.937      13781.66       16604.795      13571.1        13878.773      13895.108    
       400   1.8538573      226.72998      29.981215     -13057.834     -13027.852      13715.746      16604.795      13505.648      13810.707      13830.883    
       401   1.8584783      229.12381      30.297758     -13058.065     -13027.767      13648.363      16604.795      13441.283      13739.653      13764.152    
       402   1.8643047      231.55435      30.619155     -13058.301     -13027.682      13579.932      16604.795      13375.533      13666.716      13697.547    
       403   1.8692709      234.00935      30.943788     -13058.539     -13027.595      13509.074      16604.795      13307.747      13590.383      13629.092    
       404   1.8735962      236.47661      31.270042     -13058.778     -13027.508      13437.006      16604.795      13238.621      13512.278      13560.121    
       405   1.8780213      238.94402      31.596315     -13059.017     -13027.421      13365.999      16604.795      13171.148      13436.855      13489.993    
       406   1.8822537      241.39973      31.921041     -13059.254     -13027.333      13295.22       16604.795      13105.716      13360.775      13419.169    
       407   1.8866473      243.83196      32.242663     -13059.487     -13027.244      13225.904      16604.795      13040.399      13287.234      13350.08     
       408   1.8918727      246.22904      32.559636     -13059.715     -13027.156      13157.066      16604.795      12976.954      13212.396      13281.848    
       409   1.8977998      248.57937      32.870428     -13059.937     -13027.066      13087.027      16604.795      12913.531      13134.367      13213.183    
       410   1.9022499      250.87222      33.173618     -13060.151     -13026.977      13019.411      16604.795      12852.703      13060.399      13145.131    
       411   1.9066093      253.09743      33.467865     -13060.355     -13026.887      12955.102      16604.795      12794.978      12989.889      13080.44     
       412   1.9110792      255.24482      33.751822     -13060.549     -13026.797      12894.213      16604.795      12742.18       12921.473      13018.985    
       413   1.9155768      257.30491      34.024234     -13060.732     -13026.707      12836.724      16604.795      12692.215      12856.915      12961.043    
       414   1.9197445      259.26888      34.283935     -13060.901     -13026.617      12781.661      16604.795      12644.602      12795.662      12904.718    
       415   1.9249319      261.12849      34.529837     -13061.057     -13026.527      12732.45       16604.795      12603.46       12739.978      12853.913    
       416   1.930603       262.87634      34.760961     -13061.198     -13026.437      12688.349      16604.795      12568.409      12687.635      12809.002    
       417   1.9350806      264.50564      34.976409     -13061.323     -13026.347      12648.416      16604.795      12536.643      12639.849      12768.755    
       418   1.9397641      266.01028      35.175371     -13061.432     -13026.257      12613.709      16604.795      12511.426      12597.966      12731.735    
       419   1.9440566      267.38502      35.357157     -13061.524     -13026.167      12581.881      16604.795      12489.419      12558.776      12697.448    
       420   1.9487195      268.62565      35.52121      -13061.599     -13026.078      12557.241      16604.795      12474.385      12526.72       12670.616    
       421   1.9532338      269.72852      35.667047     -13061.656     -13025.989      12536.635      16604.795      12464.156      12498.48       12647.27     
       422   1.9587169      270.6907       35.794278     -13061.694     -13025.9        12522.687      16604.795      12460.585      12475.833      12631.642    
       423   1.9638555      271.51034      35.902662     -13061.714     -13025.811      12515.876      16604.795      12463.686      12462.387      12621.556    
       424   1.9684144      272.18658      35.992083     -13061.715     -13025.723      12513.79       16604.795      12470.915      12454.986      12615.471    
       425   1.9729803      272.71949      36.062551     -13061.698     -13025.636      12518.104      16604.795      12485.113      12453.63       12615.57     
       426   1.9772622      273.10968      36.114147     -13061.663     -13025.549      12528.847      16604.795      12505.855      12456.718      12623.969    
       427   1.9817984      273.35828      36.147021     -13061.609     -13025.462      12545.299      16604.795      12532.08       12467.311      12636.507    
       428   1.9867228      273.46787      36.161511     -13061.537     -13025.376      12566.804      16604.795      12564.651      12483.062      12652.698    
       429   1.992725       273.44182      36.158068     -13061.448     -13025.29       12593.611      16604.795      12601.758      12505.746      12673.329    
       430   1.9971578      273.28392      36.137187     -13061.343     -13025.205      12628.501      16604.795      12645.936      12537.099      12702.467    
       431   2.0012945      272.99873      36.099476     -13061.221     -13025.121      12667.649      16604.795      12694.859      12571.658      12736.429    
       432   2.0057206      272.59173      36.045657     -13061.083     -13025.037      12712.504      16604.795      12749.183      12611.826      12776.502    
       433   2.0100932      272.0691       35.976548     -13060.931     -13024.954      12762.51       16604.795      12807.935      12658.297      12821.296    
       434   2.0146017      271.43742      35.893019     -13060.765     -13024.872      12814.43       16604.795      12869.223      12707.917      12866.148    
       435   2.0197909      270.70388      35.79602      -13060.586     -13024.789      12871.628      16604.795      12933.82       12763.475      12917.588    
       436   2.0258314      269.87619      35.686573     -13060.395     -13024.708      12936.02       16604.795      13006.81       12826.183      12975.068    
       437   2.030154       268.96267      35.565775     -13060.193     -13024.627      13003.833      16604.795      13084.995      12891.567      13034.938    
       438   2.0344178      267.97198      35.434773     -13059.982     -13024.547      13075.888      16604.795      13164.807      12962.602      13100.253    
       439   2.0388161      266.91314      35.29476      -13059.762     -13024.467      13149.992      16604.795      13245.939      13035.571      13168.467    
       440   2.0435116      265.79536      35.146952     -13059.535     -13024.388      13226.449      16604.795      13329.752      13111.513      13238.084    
       441   2.0478324      264.62815      34.992608     -13059.302     -13024.309      13305.833      16604.795      13415.933      13191.206      13310.361    
       442   2.0532992      263.42145      34.833042     -13059.064     -13024.231      13386.708      16604.795      13501.977      13273.178      13384.969    
       443   2.058751       262.18528      34.669579     -13058.823     -13024.153      13469.586      16604.795      13590.158      13357.296      13461.305    
       444   2.0631418      260.92962      34.50354      -13058.579     -13024.076      13554.711      16604.795      13681.109      13444.147      13538.876    
       445   2.0679228      259.66421      34.336211     -13058.335     -13023.999      13638.882      16604.795      13770.21       13529.904      13616.532    
       446   2.072418       258.39885      34.168888     -13058.091     -13023.922      13722.314      16604.795      13859.479      13615.228      13692.234    
       447   2.0766501      257.14347      34.002886     -13057.849     -13023.846      13807.145      16604.795      13947.262      13702.064      13772.11     
       448   2.0808217      255.90786      33.839497     -13057.609     -13023.77       13891.321      16604.795      14033.936      13789.114      13850.912    
       449   2.0863195      254.70145      33.67997      -13057.374     -13023.694      13974.098      16604.795      14119.983      13875.275      13927.036    
       450   2.091781       253.53329      33.5255       -13057.144     -13023.619      14056.418      16604.795      14204.403      13962.348      14002.503    
       451   2.0962945      252.41217      33.37725      -13056.921     -13023.544      14137.226      16604.795      14286.128      14046.857      14078.692    
       452   2.1009397      251.34675      33.236366     -13056.705     -13023.468      14215.566      16604.795      14366.03       14129.488      14151.179    
       453   2.1053231      250.34511      33.103917     -13056.497     -13023.394      14290.029      16604.795      14442.272      14208.22       14219.595    
       454   2.109807       249.41474      32.980891     -13056.3       -13023.319      14361.916      16604.795      14514.725      14285.076      14285.946    
       455   2.1147534      248.56273      32.868227     -13056.112     -13023.244      14429.494      16604.795      14580.855      14357.443      14350.183    
       456   2.1207569      247.79584      32.766819     -13055.936     -13023.169      14494.715      16604.795      14644.499      14427.985      14411.661    
       457   2.1252943      247.12006      32.677458     -13055.772     -13023.094      14558.145      16604.795      14706.501      14496.839      14471.095    
       458   2.1296         246.54054      32.600827     -13055.62      -13023.019      14615.243      16604.795      14762.974      14558.742      14524.013    
       459   2.1342053      246.06238      32.537598     -13055.482     -13022.945      14668.588      16604.795      14813.722      14617.791      14574.251    
       460   2.1387193      245.68977      32.488326     -13055.358     -13022.87       14717.506      16604.795      14860.315      14671.725      14620.478    
       461   2.1429255      245.42594      32.45344      -13055.248     -13022.794      14762.209      16604.795      14902.282      14721.379      14662.966    
       462   2.1477244      245.27393      32.433339     -13055.152     -13022.719      14802.645      16604.795      14939.129      14766.985      14701.821    
       463   2.153701       245.23594      32.428315     -13055.072     -13022.644      14838.916      16604.795      14972.025      14808.415      14736.309    
       464   2.1581449      245.31327      32.438542     -13055.006     -13022.568      14869.69       16604.795      14998.236      14844.23       14766.603    
       465   2.1626256      245.5066       32.464106     -13054.956     -13022.492      14891.942      16604.795      15016.097      14871.021      14788.706    
       466   2.1670457      245.81586      32.505        -13054.92      -13022.415      14911.86       16604.795      15030.508      14898.35       14806.723    
       467   2.1716347      246.24038      32.561136     -13054.9       -13022.339      14926.948      16604.795      15039.637      14919.605      14821.602    
       468   2.1760542      246.77888      32.632344     -13054.894     -13022.262      14936.71       16604.795      15044.418      14932.97       14832.742    
       469   2.1815964      247.42937      32.718359     -13054.903     -13022.185      14942.225      16604.795      15044.206      14941.857      14840.612    
       470   2.1882158      248.18915      32.818827     -13054.926     -13022.107      14944.125      16604.795      15039.401      14948.281      14844.692    
       471   2.1926808      249.05464      32.933274     -13054.962     -13022.029      14939.624      16604.795      15028.912      14949.622      14840.339    
       472   2.1983026      250.02182      33.061167     -13055.012     -13021.951      14930.961      16604.795      15013.61       14946.645      14832.628    
       473   2.2034343      251.08628      33.201925     -13055.074     -13021.872      14919.041      16604.795      14996.008      14938.259      14822.855    
       474   2.2075307      252.24287      33.354864     -13055.148     -13021.793      14902.639      16604.795      14973.492      14925.352      14809.072    
       475   2.2130113      253.48563      33.519198     -13055.233     -13021.714      14882.635      16604.795      14946.749      14909.681      14791.476    
       476   2.2186507      254.80842      33.694114     -13055.328     -13021.634      14859.057      16604.795      14916.996      14890.215      14769.961    
       477   2.223206       256.20465      33.878742     -13055.432     -13021.554      14833.193      16604.795      14884.584      14868.276      14746.72     
       478   2.2279619      257.667        34.072114     -13055.545     -13021.473      14803.127      16604.795      14847.975      14841.364      14720.042    
       479   2.233239       259.18784      34.273219     -13055.665     -13021.392      14769.683      16604.795      14808.947      14810.406      14689.697    
[...]
       894   4.1989933      292.88841      38.72955      -13050.076     -13011.346      16791.764      16604.795      16655.274      16760.81       16959.207    
       895   4.2034455      294.94316      39.001256     -13050.368     -13011.367      16719.678      16604.795      16582.731      16690.055      16886.249    
       896   4.2089232      297.03059      39.277284     -13050.665     -13011.388      16647.056      16604.795      16509.518      16617.938      16813.711    
       897   4.2138706      299.14211      39.556497     -13050.965     -13011.409      16573.241      16604.795      16435.171      16543.487      16741.065    
       898   4.2195976      301.26893      39.837733     -13051.268     -13011.43       16499.213      16604.795      16361.262      16468.598      16667.78     
       899   4.2252429      303.40215      40.119815     -13051.571     -13011.451      16424.428      16604.795      16284.901      16393.339      16595.043    
       900   4.2296083      305.53301      40.401586     -13051.874     -13011.473      16352.282      16604.795      16212.31       16319.556      16524.981    
       901   4.2343615      307.65283      40.681896     -13052.176     -13011.494      16279.251      16604.795      16140.848      16243.669      16453.235    
       902   4.2395205      309.75294      40.9596       -13052.476     -13011.516      16206.387      16604.795      16068.642      16166.328      16384.19     
       903   4.2448856      311.82488      41.23358      -13052.772     -13011.539      16134.636      16604.795      15996.776      16090.589      16316.543    
       904   4.2498758      313.86015      41.50271      -13053.065     -13011.562      16064.6        16604.795      15926.716      16016.483      16250.6      
       905   4.2559578      315.85051      41.765901     -13053.351     -13011.585      15993.737      16604.795      15857.64       15939.564      16184.009    
       906   4.2611742      317.78829      42.02214      -13053.631     -13011.609      15926.062      16604.795      15791.139      15865.942      16121.104    
       907   4.2659748      319.66596      42.270429     -13053.904     -13011.634      15861.005      16604.795      15727.171      15795.066      16060.779    
       908   4.2701204      321.47605      42.509784     -13054.169     -13011.659      15798.224      16604.795      15666.563      15725.785      16002.324    
       909   4.2746759      323.21135      42.739248     -13054.425     -13011.685      15737.036      16604.795      15607.443      15657.018      15946.646    
       910   4.2793642      324.86518      42.957939     -13054.67      -13011.712      15678.171      16604.795      15550.695      15590.809      15893.009    
       911   4.2850534      326.4315       43.165058     -13054.905     -13011.74       15621.517      16604.795      15495.533      15526.227      15842.791    
       912   4.2900396      327.90444      43.35983      -13055.128     -13011.768      15568.116      16604.795      15444.995      15463.144      15796.21     
       913   4.294276       329.27841      43.541514     -13055.339     -13011.798      15517.044      16604.795      15396.414      15403.37       15751.348    
       914   4.2986685      330.54841      43.709451     -13055.538     -13011.828      15469.713      16604.795      15353.804      15347.682      15707.652    
       915   4.3030057      331.70992      43.863041     -13055.723     -13011.86       15424.899      16604.795      15311.907      15294.445      15668.347    
       916   4.3075828      332.7588       44.001737     -13055.894     -13011.892      15384.277      16604.795      15274.431      15242.688      15635.711    
       917   4.3128294      333.69124      44.125037     -13056.051     -13011.926      15348.756      16604.795      15242.562      15197.131      15606.575    
       918   4.3187837      334.50441      44.232564     -13056.193     -13011.96       15315.983      16604.795      15212.933      15153.882      15581.133    
       919   4.3229765      335.19597      44.324012     -13056.32      -13011.996      15288.519      16604.795      15188.671      15116.292      15560.594    
       920   4.3271878      335.7635       44.399058     -13056.431     -13012.032      15261.976      16604.795      15165.355      15079.28       15541.293    
       921   4.3316879      336.20538      44.457489     -13056.527     -13012.07       15239.669      16604.795      15146.817      15047.462      15524.728    
       922   4.3362804      336.52073      44.499189     -13056.608     -13012.108      15221.191      16604.795      15134.319      15017.098      15512.157    
       923   4.3408065      336.70905      44.524091     -13056.672     -13012.148      15207.318      16604.795      15125.92       14990.462      15505.572    
       924   4.3461851      336.77031      44.532191     -13056.721     -13012.189      15195.928      16604.795      15118.508      14968.046      15501.232    
       925   4.3518293      336.70521      44.523583     -13056.754     -13012.231      15188.832      16604.795      15115.475      14951.498      15499.521    
       926   4.3561168      336.51486      44.498413     -13056.772     -13012.274      15186.399      16604.795      15117.717      14938.563      15502.917    
       927   4.3605885      336.20052      44.456846     -13056.774     -13012.317      15189.248      16604.795      15124.798      14929.243      15513.702    
       928   4.3648527      335.76421      44.399152     -13056.761     -13012.362      15193.193      16604.795      15133.919      14922.316      15523.343    
       929   4.3694336      335.20862      44.325685     -13056.733     -13012.408      15200.927      16604.795      15145.83       14919.686      15537.264    
       930   4.3738212      334.53674      44.23684      -13056.691     -13012.454      15211.478      16604.795      15161.15       14919.245      15554.04     
       931   4.37945        333.75183      44.133049     -13056.634     -13012.501      15226.403      16604.795      15180.47       14924.589      15574.149    
       932   4.3848998      332.85806      44.014863     -13056.564     -13012.549      15243.904      16604.795      15204.349      14932.046      15595.316    
       933   4.3889184      331.85992      43.882876     -13056.481     -13012.598      15264.78       16604.795      15230.729      14942.134      15621.476    
       934   4.3934473      330.7618       43.737667     -13056.385     -13012.648      15290.463      16604.795      15261.667      14957.425      15652.297    
       935   4.3976211      329.56874      43.579906     -13056.277     -13012.697      15317.731      16604.795      15293.896      14975.62       15683.678    
       936   4.4021801      328.28635      43.410331     -13056.158     -13012.748      15345.985      16604.795      15327.706      14994.763      15715.485    
       937   4.4069827      326.92026      43.229688     -13056.029     -13012.799      15377.2        16604.795      15365.613      15016.344      15749.643    
       938   4.4127811      325.4764       43.038763     -13055.889     -13012.85       15410.394      16604.795      15403.342      15040.552      15787.287    
       939   4.4177068      323.96118      42.8384       -13055.74      -13012.902      15444.941      16604.795      15443.096      15067.045      15824.682    
       940   4.421946       322.38103      42.629452     -13055.583     -13012.954      15483.043      16604.795      15488.122      15096.88       15864.129    
       941   4.4263214      320.74271      42.412812     -13055.419     -13013.006      15521.369      16604.795      15532.495      15126.562      15905.05     
       942   4.4305795      319.05307      42.189385     -13055.248     -13013.058      15563.08       16604.795      15579.411      15161.435      15948.395    
       943   4.4350959      317.31896      41.960079     -13055.071     -13013.111      15605.929      16604.795      15629.159      15196.216      15992.411    
       944   4.4401102      315.54759      41.725845     -13054.889     -13013.163      15648.89       16604.795      15678.381      15232.519      16035.771    
       945   4.4462659      313.7462       41.487642     -13054.703     -13013.215      15693.04       16604.795      15728.143      15270.731      16080.247    
       946   4.4509378      311.92194      41.246414     -13054.514     -13013.267      15736.754      16604.795      15778.174      15306.899      16125.189    
       947   4.4555133      310.08177      41.003082     -13054.322     -13013.319      15778.993      16604.795      15827.641      15342.916      16166.421    
       948   4.4601086      308.23296      40.758608     -13054.13      -13013.371      15821.934      16604.795      15876.597      15380.589      16208.615    
       949   4.4646109      306.38267      40.513939     -13053.936     -13013.422      15866.342      16604.795      15927.087      15419.231      16252.708    
       950   4.4686482      304.5377       40.269973     -13053.744     -13013.474      15910.626      16604.795      15978.793      15459.373      16293.713    
       951   4.4736221      302.70498      40.027627     -13053.552     -13013.524      15952.887      16604.795      16028.438      15497.755      16332.47     
       952   4.4796268      300.89125      39.787791     -13053.362     -13013.575      15996.608      16604.795      16077.355      15538.662      16373.807    
       953   4.4842552      299.10303      39.551329     -13053.176     -13013.624      16037.644      16604.795      16124.614      15576.766      16411.551    
       954   4.4888377      297.34656      39.319066     -13052.993     -13013.674      16077.609      16604.795      16170.757      15613.862      16448.209    
       955   4.4930726      295.62776      39.091783     -13052.814     -13013.722      16116.871      16604.795      16215.576      15651.104      16483.932    
       956   4.4975407      293.95237      38.870242     -13052.641     -13013.771      16153.865      16604.795      16259.13       15685.255      16517.209    
       957   4.5017862      292.32596      38.655176     -13052.473     -13013.818      16189.246      16604.795      16300.608      15720.053      16547.075    
       958   4.5072707      290.75386      38.447293     -13052.312     -13013.865      16221.915      16604.795      16338.691      15752.188      16574.867    
       959   4.5127879      289.24067      38.247199     -13052.159     -13013.911      16255.979      16604.795      16378.734      15785.46       16603.742    
       960   4.5167061      287.79075      38.055471     -13052.012     -13013.957      16286.118      16604.795      16413.48       15816.979      16627.895    
       961   4.5212576      286.40852      37.872695     -13051.875     -13014.002      16312.035      16604.795      16443.695      15844.811      16647.597    
       962   4.5254665      285.0976       37.699348     -13051.745     -13014.046      16336.015      16604.795      16471.77       15870.67       16665.605    
       963   4.5298424      283.86114      37.535847     -13051.625     -13014.09       16356.724      16604.795      16495.889      15893.135      16681.149    
       964   4.5342249      282.70226      37.382604     -13051.515     -13014.132      16376.514      16604.795      16520.247      15915.196      16694.1      
       965   4.5397303      281.62336      37.239938     -13051.414     -13014.174      16394.283      16604.795      16541.5        15936.762      16704.588    
       966   4.5447769      280.62669      37.108145     -13051.324     -13014.215      16408.084      16604.795      16558.295      15954.75       16711.207    
       967   4.5486384      279.71413      36.987474     -13051.243     -13014.256      16417.093      16604.795      16570.108      15968.407      16712.763    
       968   4.5531154      278.88683      36.878078     -13051.174     -13014.296      16424.352      16604.795      16579.559      15980.385      16713.111    
       969   4.557258       278.14563      36.780066     -13051.115     -13014.335      16430.654      16604.795      16588.086      15991.971      16711.904    
       970   4.5612349      277.49087      36.693486     -13051.066     -13014.373      16432.646      16604.795      16591.539      16000.073      16706.324    
       971   4.565727       276.92281      36.61837      -13051.029     -13014.41       16431.111      16604.795      16590.788      16004.807      16697.737    
       972   4.5711767      276.44111      36.554673     -13051.002     -13014.447      16428.079      16604.795      16587.36       16008.246      16688.632    
       973   4.5762883      276.04486      36.502276     -13050.985     -13014.483      16420.013      16604.795      16577.874      16008.583      16673.581    
       974   4.580261       275.73311      36.461052     -13050.98      -13014.518      16410.011      16604.795      16567.805      16006.554      16655.675    
       975   4.5855527      275.50442      36.430811     -13050.984     -13014.553      16396.589      16604.795      16552.736      16000.84       16636.192    
       976   4.5902362      275.3568       36.411291     -13050.998     -13014.587      16381.621      16604.795      16536.357      15994.502      16614.005    
       977   4.594708       275.28813      36.40221      -13051.022     -13014.62       16365.088      16604.795      16518.271      15986.843      16590.15     
       978   4.5996329      275.29568      36.403209     -13051.056     -13014.653      16343.944      16604.795      16493.771      15976.325      16561.736    
       979   4.6057573      275.37669      36.413921     -13051.099     -13014.685      16320.958      16604.795      16467.692      15964.665      16530.516    
       980   4.60998        275.52846      36.43399      -13051.15      -13014.716      16298.728      16604.795      16441.179      15952.492      16502.515    
       981   4.6142177      275.74733      36.462932     -13051.209     -13014.747      16270.217      16604.795      16408.892      15933.486      16468.273    
       982   4.618505       276.02929      36.500217     -13051.277     -13014.777      16240.91       16604.795      16375.742      15914.856      16432.133    
       983   4.622648       276.37056      36.545343     -13051.351     -13014.806      16211.752      16604.795      16340.274      15898.429      16396.554    
       984   4.6269507      276.7672       36.597793     -13051.433     -13014.835      16180.268      16604.795      16303.929      15876.268      16360.608    
       985   4.6319436      277.21494      36.656999     -13051.52      -13014.863      16148.712      16604.795      16267.53       15855.577      16323.028    
       986   4.6381098      277.70932      36.722372     -13051.613     -13014.891      16115.169      16604.795      16228.836      15833.323      16283.348    
       987   4.6425658      278.2459       36.793326     -13051.711     -13014.918      16079.591      16604.795      16187.032      15809.186      16242.556    
       988   4.6468148      278.82003      36.869245     -13051.814     -13014.944      16044.354      16604.795      16145.403      15784.937      16202.722    
       989   4.6512181      279.42684      36.949485     -13051.92      -13014.971      16006.67       16604.795      16101.504      15757.078      16161.428    
       990   4.655667       280.06156      37.033416     -13052.03      -13014.996      15967.759      16604.795      16057.03       15728.49       16117.756    
       991   4.6599046      280.71936      37.120399     -13052.142     -13015.021      15932.091      16604.795      16014.692      15703.372      16078.209    
       992   4.6647965      281.39545      37.209801     -13052.256     -13015.046      15896.696      16604.795      15972.491      15678.716      16038.881    
       993   4.6705272      282.08528      37.301019     -13052.372     -13015.071      15859.696      16604.795      15929.419      15652.387      15997.281    
       994   4.6752174      282.78441      37.393467     -13052.488     -13015.094      15826.116      16604.795      15889.343      15629.067      15959.939    
       995   4.6794882      283.48843      37.486562     -13052.605     -13015.118      15789.41       16604.795      15846.743      15602.165      15919.323    
       996   4.6837164      284.19255      37.57967      -13052.721     -13015.141      15754.135      16604.795      15804.819      15576.929      15880.657    
       997   4.6884404      284.89244      37.672218     -13052.836     -13015.164      15722.405      16604.795      15768.21       15554.311      15844.694    
       998   4.692785       285.58427      37.763701     -13052.95      -13015.186      15690.646      16604.795      15731.855      15529.85       15810.233    
       999   4.6983134      286.264        37.853584     -13053.062     -13015.208      15657.892      16604.795      15695.039      15504.073      15774.563    
      1000   4.7037506      286.92807      37.941396     -13053.172     -13015.23       15626.455      16604.795      15658.368      15480.948      15740.05     
Loop time of 4.7038 on 16 procs for 1000 steps with 1024 atoms

Performance: 18.368 ns/day, 1.307 hours/ns, 212.594 timesteps/s
99.4% CPU use with 16 MPI tasks x 1 OpenMP threads

MPI task timing breakdown:
Section |  min time  |  avg time  |  max time  |%varavg| %total
---------------------------------------------------------------
Pair    | 4.1014     | 4.1481     | 4.2253     |   1.8 | 88.19
Neigh   | 0          | 0          | 0          |   0.0 |  0.00
Comm    | 0.13983    | 0.21637    | 0.26394    |   7.9 |  4.60
Output  | 0.29571    | 0.29752    | 0.32013    |   1.1 |  6.33
Modify  | 0.0137     | 0.014858   | 0.016104   |   0.7 |  0.32
Other   |            | 0.02698    |            |       |  0.57

Nlocal:             64 ave          64 max          64 min
Histogram: 16 0 0 0 0 0 0 0 0 0
Nghost:            887 ave         887 max         887 min
Histogram: 16 0 0 0 0 0 0 0 0 0
Neighs:              0 ave           0 max           0 min
Histogram: 16 0 0 0 0 0 0 0 0 0
FullNghs:         5632 ave        5632 max        5632 min
Histogram: 16 0 0 0 0 0 0 0 0 0

Total # of neighbors = 90112
Ave neighs/atom = 88
Neighbor list builds = 0
Dangerous builds = 0


--------------------------------------------------------------------------

                               FLOPs Report

--------------------------------------------------------------------------
         alloc:     0.0000 GFlops,       0.0001 secs,       0.0000 GFLOP/s
         setup:     0.0000 GFlops,       0.2450 secs,       0.0000 GFLOP/s
   fnn->interp:     3.4243 GFlops,       0.8444 secs,       4.0551 GFLOP/s
             P:     7.2090 GFlops,       0.4853 secs,      14.8552 GFLOP/s
             Q:     0.4506 GFlops,       0.0840 secs,       5.3631 GFLOP/s
             G:     0.0020 GFlops,       0.0115 secs,       0.1780 GFLOP/s
   nn->compute:    12.7224 GFlops,       0.4805 secs,      26.4749 GFLOP/s
          dEdP:     0.4547 GFlops,       0.1167 secs,       3.8967 GFLOP/s
            UV:    14.4179 GFlops,       1.0427 secs,      13.8278 GFLOP/s
            F1:     0.3773 GFlops,       0.3749 secs,       1.0065 GFLOP/s
            F2:     0.2422 GFlops,       0.3924 secs,       0.6172 GFLOP/s
        forces:     0.0676 GFlops,       0.0439 secs,       1.5391 GFLOP/s
--------------------------------------------------------------------------
       Overall:    39.3679 GFlops,       4.1215 secs,       9.5519 GFLOP/s
--------------------------------------------------------------------------

Total wall time: 0:00:04
