LAMMPS (4 May 2022)
  using 1 OpenMP thread(s) per MPI task
variable                    T equal 300
variable                    R equal 984523

units		                metal
dimension                   3
boundary	                p p p
atom_style	                atomic

lattice                     bcc 3.189
Lattice spacing in x,y,z = 3.189 3.189 3.189
region                      box block 0 30 0 30 0 30
create_box                  1 box
Created orthogonal box = (0 0 0) to (95.67 95.67 95.67)
  3 by 4 by 4 MPI processor grid
create_atoms                1 box
Created 54000 atoms
  using lattice units in orthogonal box = (0 0 0) to (95.67 95.67 95.67)
  create_atoms CPU = 0.007 seconds

pair_style	                tensormd
pair_coeff	                * * ../../../W_k32_snapshot.npz W interp 0.001 1
Use interpolation: dr = 0.0010, algo = batch

mass                        1 183.8

neighbor                    1.0 bin
neigh_modify                every 1 delay 0 check yes

thermo                      20
thermo_style                custom step cpu temp ke pe etotal press vol pxx pyy pzz

velocity                    all create $T $R dist gaussian
velocity                    all create 300 $R dist gaussian
velocity                    all create 300 984523 dist gaussian
fix                         1 all nvt temp $T $T 0.1
fix                         1 all nvt temp 300 $T 0.1
fix                         1 all nvt temp 300 300 0.1
# dump                        1 all custom 1 dump.fnn id type x y z fx fy fz

run                         1000
Neighbor list info ...
  update every 1 steps, delay 0 steps, check yes
  max neighbors/atom: 2000, page size: 100000
  master list distance cutoff = 7
  ghost atom cutoff = 7
  binsize = 3.5, bins = 28 28 28
  1 neighbor lists, perpetual/occasional/extra = 1 0 0
  (1) pair tensormd, perpetual
      attributes: full, newton on
      pair build: full/bin/atomonly
      stencil: full/bin/3d
      bin: standard
Per MPI rank memory allocation (min/avg/max) = 139.3 | 139.9 | 140.5 Mbytes
   Step          CPU            Temp          KinEng         PotEng         TotEng         Press          Volume          Pxx            Pyy            Pzz      
         0   0              300            2093.9756     -690382.96     -688288.99      1557.2342      875643.49      1568.2262      1544.1582      1559.3182    
        20   2.1402026      210.82081      1471.5121     -689756.79     -688285.28      5618.0023      875643.49      5633.0039      5607.8067      5613.1963    
        40   4.2991384      63.700281      444.62277     -688717.26     -688272.63      11807.877      875643.49      11830.89       11803.317      11789.424    
        60   6.4695049      46.607208      325.31452     -688591.26     -688265.94      11961.987      875643.49      11983.888      11960.473      11941.6      
        80   8.6359821      149.43306      1043.0306     -689291.43     -688248.4       7295.4298      875643.49      7306.7683      7292.1563      7287.3648    
       100   10.793317      216.62883      1512.0516     -689728.62     -688216.57      4995.4235      875643.49      5002.5637      4988.6438      4995.0629    
       120   12.946804      192.38001      1342.7968     -689526.77     -688183.97      7035.8064      875643.49      7048.2719      7029.4301      7029.7172    
       140   15.106779      151.21373      1055.4596     -689209.82     -688154.36      9181.1462      875643.49      9195.2276      9176.448       9171.7631    
       160   17.265702      146.45385      1022.2359     -689148.24     -688126.01      9120.5825      875643.49      9124.1537      9115.7058      9121.8882    
       180   19.427528      151.70058      1058.8577     -689154.92     -688096.07      8773.6621      875643.49      8761.915       8770.1298      8788.9414    
       200   21.590559      150.75575      1052.2628     -689117.52     -688065.26      9218.6688      875643.49      9200.8989      9217.6944      9237.4131    
       220   23.75215       169.75018      1184.8424     -689217.48     -688032.64      8912.5351      875643.49      8903.7931      8912.5257      8921.2864    
       240   25.910976      200.97113      1402.7621     -689398.53     -687995.77      7764.8031      875643.49      7771.1551      7765.1609      7758.0933    
       260   28.067327      195.10714      1361.8319     -689319.52     -687957.69      8089.5321      875643.49      8103.4114      8089.0847      8076.1004    
       280   30.228507      155.3114       1084.0609     -689006.79     -687922.73      10085.582      875643.49      10094.354      10078.907      10083.486    
       300   32.394087      146.55597      1022.9487     -688913.51     -687890.57      10864.095      875643.49      10860.357      10854.839      10877.089    
       320   34.557296      187.83666      1311.0846     -689165.39     -687854.3       9373.5598      875643.49      9360.8237      9371.1583      9388.6975    
       340   36.722482      215.43598      1503.7256     -689316.68     -687812.95      8328.6257      875643.49      8315.8574      8333.9096      8336.1102    
       360   38.881771      191.67727      1337.8918     -689110.83     -687772.94      9578.7304      875643.49      9576.8084      9582.0462      9577.3365    
       380   41.044982      165.9427       1158.2665     -688894.14     -687735.88      11022.91       875643.49      11034.79       11015.349      11018.59     
       400   43.208757      184.72938      1289.3961     -688987.2      -687697.81      10570.71       875643.49      10587.331      10555.929      10568.871    
       420   45.374116      215.43367      1503.7095     -689159.16     -687655.46      9542.3266      875643.49      9548.3271      9538.6452      9540.0076    
       440   47.5394        210.38356      1468.4601     -689081.29     -687612.83      10013.638      875643.49      10006.302      10026.917      10007.695    
       460   49.702252      187.67519      1309.9575     -688882.33     -687572.37      11257.015      875643.49      11253.925      11270.269      11246.852    
       480   51.866407      191.11081      1333.9379     -688865.91     -687531.97      11401.192      875643.49      11418.034      11400.41       11385.132    
       500   54.031675      214.66548      1498.3476     -688987.16     -687488.82      10691.149      875643.49      10727.359      10679.624      10666.465    
       520   56.193993      222.83293      1555.3557     -688999.9      -687444.54      10645.523      875643.49      10678.07       10640.755      10617.745    
       540   58.357796      213.92543      1493.1821     -688894.52     -687401.34      11366.703      875643.49      11372.974      11380.746      11346.389    
       560   60.524474      212.24976      1481.486      -688839.77     -687358.29      11800.132      875643.49      11793.169      11818.148      11789.079    
       580   62.689623      220.65627      1540.1628     -688854.34     -687314.18      11749.132      875643.49      11757.901      11751.776      11737.72     
       600   64.854135      223.59582      1560.6806     -688830.35     -687269.67      11851.384      875643.49      11886.258      11841.27       11826.623    
       620   67.021773      222.27739      1551.4781     -688776.93     -687225.45      12173.328      875643.49      12219.576      12165.671      12134.737    
       640   69.190165      229.52858      1602.0908     -688782.84     -687180.75      12260.356      875643.49      12294.471      12268.289      12218.309    
       660   71.355491      240.92866      1681.6624     -688817.01     -687135.35      12182.743      875643.49      12200.341      12206.981      12140.907    
       680   73.520645      242.04261      1689.4377     -688779.96     -687090.52      12402.606      875643.49      12419.251      12426.357      12362.209    
       700   75.685843      235.2508       1642.0314     -688688.55     -687046.51      12899.371      875643.49      12924.367      12909.179      12864.568    
       720   77.853887      235.16783      1641.4523     -688643.62     -687002.17      13235.111      875643.49      13258.755      13234.251      13212.326    
       740   80.02667       244.69197      1707.9301     -688664.85     -686956.92      13247.659      875643.49      13259.402      13247.234      13236.341    
       760   82.196556      253.50154      1769.4201     -688681.1      -686911.68      13172.798      875643.49      13171.369      13176.334      13170.689    
       780   84.364982      256.42121      1789.7992     -688657.24     -686867.44      13249.348      875643.49      13240.723      13260.249      13247.071    
       800   86.533889      257.53548      1797.5766     -688621.55     -686823.97      13509.272      875643.49      13505.761      13532.332      13489.724    
       820   88.702299      258.55946      1804.724      -688585.53     -686780.81      13900.513      875643.49      13901.933      13926.779      13872.827    
       840   90.87076       258.32083      1803.0584     -688540.9      -686737.85      14256.294      875643.49      14253.655      14269.282      14245.943    
       860   93.041482      260.74878      1820.0052     -688514.86     -686694.85      14339.933      875643.49      14338.32       14336.816      14344.662    
       880   95.212384      269.34066      1879.9759     -688531.81     -686651.83      14207.062      875643.49      14209.681      14205.936      14205.571    
       900   97.382124      277.78238      1938.8984     -688548.84     -686609.94      14233.794      875643.49      14231.112      14255.097      14215.173    
       920   99.551202      277.81327      1939.114      -688509.48     -686570.37      14595.227      875643.49      14587.227      14625.438      14573.016    
       940   101.72203      273.40297      1908.3305     -688440.49     -686532.16      14983.313      875643.49      14981.501      14989.049      14979.39     
       960   103.89393      274.67596      1917.2158     -688410.69     -686493.48      15104.674      875643.49      15113.559      15081.303      15119.159    
       980   106.0658       281.71891      1966.375      -688420.83     -686454.46      15112.102      875643.49      15120.721      15090.262      15125.324    
      1000   108.24296      286.47704      1999.5864     -688416.43     -686416.85      15252.402      875643.49      15247.264      15260.21       15249.732    
Loop time of 108.243 on 48 procs for 1000 steps with 54000 atoms

Performance: 0.798 ns/day, 30.068 hours/ns, 9.238 timesteps/s
99.5% CPU use with 48 MPI tasks x 1 OpenMP threads

MPI task timing breakdown:
Section |  min time  |  avg time  |  max time  |%varavg| %total
---------------------------------------------------------------
Pair    | 105.29     | 106.55     | 107.9      |   5.9 | 98.44
Neigh   | 0          | 0          | 0          |   0.0 |  0.00
Comm    | 0.2327     | 1.4711     | 2.7781     |  50.0 |  1.36
Output  | 0.0035261  | 0.0036519  | 0.0050619  |   0.4 |  0.00
Modify  | 0.075012   | 0.18942    | 0.37326    |  24.4 |  0.17
Other   |            | 0.02605    |            |       |  0.02

Nlocal:           1125 ave        1130 max        1120 min
Histogram: 24 0 0 0 0 0 0 0 0 24
Nghost:           3051 ave        3056 max        3046 min
Histogram: 24 0 0 0 0 0 0 0 0 24
Neighs:              0 ave           0 max           0 min
Histogram: 48 0 0 0 0 0 0 0 0 0
FullNghs:        99000 ave       99440 max       98560 min
Histogram: 24 0 0 0 0 0 0 0 0 24

Total # of neighbors = 4752000
Ave neighs/atom = 88
Neighbor list builds = 0
Dangerous builds = 0


--------------------------------------------------------------------------

                               FLOPs Report

--------------------------------------------------------------------------
         alloc:     0.0000 GFlops,       0.0002 secs,       0.0000 GFLOP/s
         setup:     0.0000 GFlops,       8.3921 secs,       0.0000 GFLOP/s
   fnn->interp:    60.1920 GFlops,      23.1532 secs,       2.5997 GFLOP/s
             P:   126.7200 GFlops,      11.0318 secs,      11.4868 GFLOP/s
             Q:     7.9200 GFlops,       2.0264 secs,       3.9084 GFLOP/s
             G:     0.0360 GFlops,       0.2788 secs,       0.1291 GFLOP/s
   nn->compute:   223.6354 GFlops,      11.2164 secs,      19.9382 GFLOP/s
          dEdP:     7.9920 GFlops,       6.1989 secs,       1.2893 GFLOP/s
            UV:   253.4400 GFlops,      28.7167 secs,       8.8255 GFLOP/s
            F1:     6.6330 GFlops,       8.1546 secs,       0.8134 GFLOP/s
            F2:     4.2570 GFlops,       5.9839 secs,       0.7114 GFLOP/s
        forces:     1.1880 GFlops,       0.8365 secs,       1.4202 GFLOP/s
--------------------------------------------------------------------------
       Overall:   692.0134 GFlops,     105.9895 secs,       6.5291 GFLOP/s
--------------------------------------------------------------------------

Total wall time: 0:01:48
