ITEM: TIMESTEP
20
ITEM: NUMBER OF ATOMS
8192
ITEM: BOX BOUNDS pp pp pp
0.0000000000000000e+00 5.1024000000000001e+01
0.0000000000000000e+00 5.1024000000000001e+01
0.0000000000000000e+00 5.1024000000000001e+01
ITEM: ATOMS id type x y z fx fy fz
145 1     0.01324168005490     3.19754090299613     3.22029237668984    -0.29600342110779    -0.13674237901228    -0.20907736514391
2 1     1.62055679985850     1.61229236292954     1.59383088370509    -0.33247625464721    -0.15622038677707    -0.21219329347279
131 1     3.19350053791745     0.01007555377245     3.18716331327160     0.09528727917502    -0.05866069259828    -0.21658051091904
147 1     3.17959399866195     3.17866009187470     3.19502487576819     0.33075355549370     0.12750253535772    -0.34930306355348
4 1     4.81414883642282     1.58283532692864     1.59419385280824    -0.16980504142212     0.36841623229270    -0.01513710191088
149 1     6.35388334853870     3.19164989224387     3.19504996081574     0.46573235168487     0.00732632495739    -0.25485870877677
5 1     6.41788763073548     0.00495761396092     0.03771388250469    -0.60483815367268    -0.02025441285325    -0.58823179985156
6 1     8.02653892598872     1.59486010465684     1.62991587667467    -0.89360766679546     0.09130468764080    -0.42002397165254
151 1     9.59616261556207     3.19584635698202     3.15162747983140    -0.56356612446065     0.02260421022704     0.59466367049928
23 1     9.58145826610903     3.19662375965477     0.03240162017121     0.09760048069110    -0.01955918052824    -0.37328234172749
8 1    11.16712193974031     1.59430735541224     1.62525525743159     0.05290146608295    -0.08814881886489    -0.76429992553479
137 1    12.77233055927973     0.01796728443745     3.17365498047514    -0.41311207556149    -0.27334951583589     0.35983180010372
153 1    12.76365381922664     3.20999207080724     3.20109775033680    -0.06337094237554    -0.45216087886796    -0.13696062086061
9 1    12.73023455659547     0.00342783117869     0.00162013344484     0.12775797646406     0.00956748474047    -0.23783925805991
10 1    14.31781144311311     1.58820696565328     1.57911386549613     0.57233613240791     0.14118334520275     0.08226728402862
155 1    15.94775403650879     3.16417942364370     3.15271188187059    -0.16076764043205     0.21477673658111     0.50797834245032
12 1    17.54827601015645     1.59447885465438     1.61320690851534    -0.21284024124259    -0.23493485095766    -0.57155569616241
157 1    19.13771132911229     3.19772788287631     3.11445644922049     0.06453407175559    -0.40965293740031     1.13168151023379
14 1    20.72444275650633     1.57118824618140     1.60431043967591     0.20841330063181     0.39819683740603    -0.06928222980647
16 1    23.94760389131696     1.57014106538576     1.57534362886117    -0.48658551475162     0.46066075848104     0.51858647589759
4241 1    25.49609916215883     3.18774868326504     3.21602150115687     0.25881052470801     0.02592726926206    -0.23864307879158
143 1    22.33940858054657     0.00763343501649     3.18528825919220    -0.41697116675869     0.12992535504632     0.15157853163695
159 1    22.30902025885466     3.17893313518552     3.21282722525740     0.12675769987125     0.15549215685487    -0.48209426861840
33 1     0.02677534616723     6.35678043643825     0.04015791036799    -0.42805407343504     0.34943897856017    -0.66189539849283
18 1     1.56398200953021     4.80546506332604     1.62362930518168     0.51938138168113    -0.41272361881299    -0.05859125365782
35 1     3.20513011892741     6.31475127594344     0.04783526387532    -0.20799268549040     1.32448893169915    -0.61786780525962
163 1     3.19238254921130     6.35237336384293     3.19737661489311    -0.13265716827218     0.54885145010122     0.09084689810323
20 1     4.76827140499132     4.83855438321183     1.59078642127916     0.32389301068393    -1.21323383733976     0.19449275076522
37 1     6.39072804938239     6.37829618599061     0.02425564945352    -0.13801717794770     0.08783570213995    -0.43393656364614
165 1     6.36237375613830     6.37040206499375     3.18064335739398     0.39811683194022     0.13525643718536     0.30774657799789
22 1     7.96700863032678     4.80225639239785     1.57897421184302     0.08484570500188    -0.40656920316470     0.33709388676883
39 1     9.58011664467806     6.39429742923391     0.01564778542373    -0.00192613629012    -0.15999106487454    -0.31876923514864
167 1     9.57216340007459     6.38760155772912     3.22356574484653    -0.11164132536754    -0.18105033626582    -0.41756886704894
24 1    11.17242722983731     4.77836151518724     1.60552192848593    -0.10330995347770     0.14295213702925    -0.19630453461862
41 1    12.76336905864863     6.34511714035790     0.00830395751238    -0.12777497335271     0.50201661872420    -0.09779702583437
169 1    12.75069254940749     6.33248582167491     3.22866133304722    -0.04974996441894     0.72269619383101    -0.55722907022416
26 1    14.32952559799167     4.79644278252163     1.57616595824681     0.35001111767722    -0.21813288888762     0.25246523249268
43 1    15.95592207884287     6.37869523028427     0.05024582155017    -0.15810892357281     0.09755629791185    -0.83306265400529
171 1    15.94977420156908     6.39118033164928     3.19117527128699    -0.10519487650909    -0.41044471242511     0.10639909191735
28 1    17.53604031263880     4.75319303088050     1.61815612170575    -0.06588787864401     0.55208363464669    -0.68063026776786
173 1    19.11888484951713     6.35863618901442     3.16004782159148     0.28603648196943     0.39832880046381     0.42293440919146
30 1    20.72923158955124     4.79721114593925     1.60983482040643     0.18487076588016    -0.21963194497482    -0.38092946517284
32 1    23.90432761604067     4.77144738517349     1.57943820534537     0.21314639601756     0.15417020711728     0.33387836032266
47 1    22.34199650461759     6.38026376794765     0.02265731509633    -0.06425069248940    -0.09817482720814    -0.38683876677558
175 1    22.30661853196622     6.41658183951701     3.19418811042063     0.23997774190662    -0.80797879837140    -0.05997682601059
177 1     0.01923548274861     9.55966053670323     3.18135318938892    -0.21350076041121     0.01877909126766     0.16891957012203
34 1     1.58848208133924     7.99368353954991     1.61071624032610     0.31635809979896    -0.40789508609570    -0.22799069822639
51 1     3.17166987805886     9.56391201412364     0.02388264442043     0.37517615348435    -0.12046108830103    -0.17391986010549
179 1     3.20805829229991     9.59753843250173     3.20968787460528    -0.23289045861697    -0.59619856752989    -0.29858059946138
36 1     4.79800497898735     7.99251008285618     1.61905584798885    -0.27826366740189    -0.15046328311230    -0.39457564425032
53 1     6.38199187029529     9.59624767077781     0.04585705674233    -0.35975051887841    -0.75386491590801    -0.92556778230558
181 1     6.38429479036494     9.56344683851007     3.14835033507600     0.05724017688519     0.03777348667587     0.78544355958754
38 1     8.00660286473825     7.93958423551141     1.59285200975349    -0.53083941973686     0.39344136151840     0.08657114727412
55 1     9.53603496849857     9.61584605850982     0.00209973849291     0.69124749948378    -1.04299268141347    -0.17899369322547
183 1     9.54792980304357     9.53934891054923     3.16885451956035     0.49638451434123     0.37241080558290     0.50843498914119
40 1    11.14963169812470     7.95173159621648     1.61531306814017     0.41060543458972     0.23469898633746    -0.18376116215364
185 1    12.81153697987823     9.56590144317973     3.18830373017793    -1.05724992407599    -0.03482695423484     0.14241653994241
42 1    14.35362611223117     7.98665787123167     1.62393370091986    -0.04540206295033    -0.44095039865342    -0.39212288944162
59 1    15.96081893177884     9.56169406451833     0.02288472099806    -0.33196637014494     0.08581710713721    -0.33629174634307
187 1    15.96628681687482     9.54213900300585     3.21273303881044     0.04661432623118     0.32369987056804    -0.29232161029017
44 1    17.55231040061952     7.96724869566667     1.58875638425973     0.05345550662865     0.00103264155896     0.19295199757073
61 1    19.12124833886978     9.55794373408731     0.02293062842446     0.16626700194839     0.38925970319227    -0.33106466910032
189 1    19.16348461394397     9.60720833345941     3.22142860233071    -0.20292248387623    -0.68644871862606    -0.51176380926066
46 1    20.74825787870057     7.97161909836404     1.55175473334365    -0.37614736039921     0.17351238260001     0.72125566724850
48 1    23.92112596204227     7.97982441864859     1.59424483406795    -0.06716047330068    -0.15272460145603    -0.17335885325857
4145 1    25.48450259955824     9.57209396025877     0.00737789220893     0.24628627972352    -0.19811239331458     0.03103704282703
4273 1    25.48336788210737     9.57276655516825     3.21612342650557     0.37977792576159     0.08165362556316    -0.49520868221965
191 1    22.33060697504765     9.52908628074484     3.17801705291996    -0.34376460440030     0.82317403031740     0.02936137882009
193 1     0.00889659853520    12.72090115634790     3.16128366349280    -0.42608958185944     0.69431474031000     0.40291248007574
50 1     1.57632047162799    11.13389027557037     1.60273999427418     0.25887246647075     0.47870607688130    -0.40510613052032
66 1     1.58590798289748    14.34462280727811     1.59088440430125     0.18292708564934    -0.11611084629561     0.16413559237049
67 1     3.18101861562405    12.78107540089534     0.02167072323030    -0.04785672157571    -0.42938582892585    -0.20767669847435
195 1     3.17112878061482    12.76013087735372     3.19866202758555     0.31759137045679     0.12409114309842    -0.26494279879979
52 1     4.77206244054162    11.16879815326448     1.58681811806034     0.11357629198050     0.08800507313183     0.21724060606556
68 1     4.81959369305071    14.35746755513718     1.59089886703225    -0.51980998089933    -0.06915781851934     0.11944083199660
197 1     6.35235483846249    12.74135541652162     3.18705392106585     0.52836421091667     0.23352253482768    -0.00682656680620
54 1     7.99935899448208    11.11474595487110     1.56459051680527    -0.55606619812239     0.95779301916795     1.01346440193666
70 1     7.97581034227244    14.40593945984019     1.56653412742917     0.07007424289533    -1.10944363659200     0.57118949838848
71 1     9.57578056741750    12.75420539327969     0.03127507016607    -0.34366286345953     0.34275744413636    -0.64440857845612
199 1     9.54077312156844    12.76324197128550     3.16133211210911     0.17542098091092    -0.03855861610601     0.56753751473771
56 1    11.14436178496912    11.15530975871411     1.59930097267096     0.28916113794810    -0.16126599011270     0.17112675915294
72 1    11.14652286711272    14.34216023173716     1.56396598234309     0.17120279899560     0.25626770762131     0.64580368469497
73 1    12.73723791866368    12.73030267336534     0.01046656881905     0.41068981226602     0.32479591309531    -0.27365081759677
201 1    12.75361346882103    12.79107749010269     3.12828030447195     0.00953280580836    -0.64083912132201     1.14222140010068
58 1    14.33165235211610    11.12382400183882     1.63341242882525     0.43065104923635     0.58522141371256    -0.65487794285046
74 1    14.34826536765716    14.33231053859423     1.59122306766734    -0.08872036443775     0.32019642679820    -0.08708544698862
75 1    15.94632342636971    12.74963254700909     0.01865224768808    -0.21084811357902     0.00004302092194    -0.39947448100954
203 1    15.97873809342090    12.76361161381574     3.17335913303143    -0.45629424715695    -0.45448566934947     0.34373022357734
60 1    17.55475418783682    11.14992170166263     1.59186885089245    -0.23268664642069     0.11319810643782     0.06846736211758
76 1    17.52546751615555    14.34151021661143     1.63505830130134     0.34252362623721     0.11717650561952    -0.63220678322631
205 1    19.16211195565911    12.77445982477860     3.19302367161246    -0.29722977494918    -0.16799286379806     0.19688242143190
62 1    20.72278414750148    11.19462230287279     1.61708094913761     0.08679730591328    -0.67294589741779    -0.30948115090210
78 1    20.71899210433791    14.30879898231514     1.58787243667955    -0.09191019636296     0.92323361216561     0.10727342068877
80 1    23.90079566556132    14.32970558226854     1.54163540468317     0.30719650443623     0.33337912337760     0.97922161152327
64 1    23.89511462432481    11.15103557932872     1.62344642181073     0.18411622511378     0.07521578988333    -0.33109903218940
4161 1    25.49251108143751    12.72767350447086     0.02314128136730     0.24081866047046     0.26394881779629    -0.27141746855225
207 1    22.35752979005585    12.78633663493180     3.15771200115073    -0.32742696959478    -0.63021949197723     0.66138702474587
209 1     0.05033335798688    15.94718904055597     3.20259903733550    -0.66218850154083    -0.05975797768503    -0.01441150854049
82 1     1.58225470699992    17.51141219224085     1.57582686871054     0.21074321217261     0.50058054803964     0.27469492389300
211 1     3.20786003625442    15.92578531167135     3.15914342042140    -0.03914881743314     0.22565295853160     0.62221266893424
84 1     4.75642371442659    17.55083882341370     1.59884112767882     0.30881022477448    -0.17280192584159    -0.16071453257827
85 1     6.40801338718619    15.95145898441264     0.00584504579743    -0.60587470162713     0.04329764167175    -0.21805434152193
213 1     6.40486874399025    15.97084316809736     3.16926636574435    -0.42678755952820    -0.43330231124404     0.29700393945226
86 1     7.94283179776849    17.51216748431113     1.61388487636769     0.67095909701176     0.96921344490380    -0.43735962291353
87 1     9.57349976010259    15.95400738354921     0.01534177168630    -0.14290003127474     0.25134595851672    -0.33953020460697
215 1     9.59624064559173    15.96371543362277     3.19895558661375    -0.30527254853361    -0.26998930303101    -0.20405187444198
88 1    11.17860381828311    17.55667352882523     1.59189287900580    -0.43299622261896    -0.00315988867283     0.08436171657502
89 1    12.71169209907616    15.94748488571595     0.01193945963064     0.77459440104296    -0.11400515198944    -0.21683376999829
217 1    12.76164140696338    15.96389777511009     3.19577432812460    -0.04538509515019    -0.39300034634140    -0.07523677604501
90 1    14.33101736757446    17.56163354017190     1.59395903037690     0.38969840514630    -0.48095539763557    -0.05539807781451
91 1    15.93764873335554    15.93653474722863     0.04134436697965    -0.23446297678261     0.17707436795000    -0.51591512442607
219 1    15.93946948218230    15.90502929581157     3.20196805953589    -0.07201809036682     0.68357585372894     0.13572405210044
92 1    17.53060841514629    17.52031004172964     1.61007259989831    -0.13151383459910     0.10233810313221    -0.22034283022601
221 1    19.12018753003439    15.96156097188029     3.21824629802159     0.26886011784275    -0.51733513096039    -0.37904146702704
94 1    20.70627048844699    17.53174224886215     1.58611958843962     0.39789051432532    -0.31423126016704     0.15385011317052
96 1    23.95067686093723    17.54196914653519     1.60524535304763    -0.47293661387047    -0.30316814431282    -0.10388859968590
4305 1    25.49399453752941    15.92951858646072     3.17442232441909     0.31175233222275     0.12753217494780     0.05265448910055
223 1    22.32385469489169    15.91787822415333     3.17070091686121    -0.10983789515890     0.29999498389010     0.21214763741513
98 1     1.59259178965066    20.72836135674253     1.59334654618822     0.10429214439566    -0.03258314439453    -0.10781306304735
227 1     3.17763323837880    19.14163141676553     3.20182996541615    -0.10135067468653    -0.24268855251240    -0.30299007220286
100 1     4.79885042033661    20.71122066328921     1.59710618754658    -0.33971078800871     0.28660285479873    -0.38260233441096
101 1     6.40534358169883    19.14697708836688     0.00212474689400    -0.17413922731727    -0.04327547090193    -0.05243889508842
229 1     6.32755059918531    19.13308663114695     3.16018941412380     0.77337994592573     0.09934743231662     0.37843884919228
102 1     7.95063564753613    20.74463008281371     1.59229766229019     0.30875791417505    -0.28305296025011    -0.01032244386234
231 1     9.53621098583675    19.17272133829397     3.17808771383379     0.41477285406302    -0.47401373429821     0.13486942920965
104 1    11.18504383361085    20.73938173328483     1.57639535387688    -0.11976585274662    -0.20819567628579     0.37851082553031
233 1    12.79910477150493    19.12749798118828     3.18683434054546    -0.89362908555486     0.26616398473047    -0.02791622498627
106 1    14.37839602717922    20.73550359205127     1.60232813578164    -0.25253186606533    -0.20145988459505    -0.19209989184432
235 1    15.92855955731782    19.13669302811920     3.19970798774764     0.44985102268214    -0.38304894397454    -0.25480760159946
108 1    17.57059320527322    20.68804476119092     1.57408788506251    -0.44959803679483     0.36740620376957     0.30218828897296
237 1    19.12628699317983    19.11988322895120     3.14448631438075     0.02724081953801     0.23164549758223     0.73832041740840
110 1    20.71829814310170    20.71890679735078     1.60699487914993     0.24083686672667     0.01323938571217    -0.10156661066708
112 1    23.92105859219187    20.70990671595787     1.58483359065223    -0.31950383174329     0.43595654152824     0.09945597787268
4321 1    25.51142596004583    19.11724599452328     3.18428091960322     0.13247557944891     0.11371322756906     0.09760486836266
111 1    22.31892760522543    19.11957955079660     0.03455482913638     0.19157589926417     0.35937612512995    -0.53480132193266
239 1    22.30224519892715    19.12839942788015     3.17078738795365     0.21202062503634    -0.20447671739818     0.20988865848436
241 1     0.01776379872839    22.34720356527686     3.15645752154287    -0.21390314324869    -0.26360948047004     0.46357544585057
114 1     1.59698361338529    23.95052039995391     1.57415852677091    -0.09529750715377    -0.62695934559094     0.12390515766109
2179 1     3.21739332418753    25.48175506054561     3.19377678446667    -0.18237630450237     0.41346909339325     0.00775138125916
2051 1     3.17747487050275    25.48803281575476     0.01978278136540     0.03462019297139     0.34904153560582    -0.48774691815479
115 1     3.22489472584486    22.31751454432601     0.00304501326833    -0.55421784696585    -0.06743260685577    -0.17128096615166
243 1     3.18221352803552    22.29953022207388     3.15791209115504     0.07737922668087     0.21745496923606     0.40982907038338
116 1     4.78473064120873    23.90817960473802     1.61452263991540     0.18216951439515     0.13717929240791    -0.40647575473392
245 1     6.33456911696499    22.33745713524110     3.23053799174516     0.75912564701763    -0.36473687337732    -0.70503659402418
118 1     8.01013825288007    23.88469235442207     1.58998775253688    -0.77490503878390     0.53207198980550    -0.03624610688346
2055 1     9.61360930979766    25.49535929230215     0.00739756639813    -0.90148492977181     0.19117475140622    -0.24317100897941
247 1     9.59795517789092    22.31252823967347     3.18640534787038    -0.48314774961566     0.14828917146001     0.11694316520188
120 1    11.13256275445244    23.89251918748108     1.56989409258062     0.78395968990644     0.29977475655853     0.30214545023958
2185 1    12.73828365797740    25.49746353727682     3.19497683539291     0.17678873355276     0.16440098162466     0.01131788826756
121 1    12.77767657662739    22.30048367846858     0.00080738375299    -0.37444636879239     0.46325247737188    -0.11079169988025
249 1    12.77076810928178    22.30863784806265     3.19699834419078    -0.32265806501251     0.24547993008161    -0.07946615798246
122 1    14.34626657950828    23.87772852567374     1.62144821781604    -0.01864390277984     0.54775458859099    -0.43002850211904
2187 1    15.92418707643306    25.50803459982010     3.20316741595814     0.26507430956324    -0.08114681136412    -0.07638509071619
123 1    15.97691611545876    22.28483278563283     0.01155318204195    -0.28783483418513     0.60364746262157     0.00931420250168
251 1    15.90927926648742    22.32391844458191     3.20484227696090     0.72498262354552    -0.00324405429432     0.00624817768538
124 1    17.55643485942217    23.90161313800632     1.64283221033028    -0.35141971681445     0.32931039823884    -0.56402882717133
125 1    19.14663362650029    22.30923547788645     0.05206460563430    -0.45446584835026    -0.02853208901474    -0.79008411796773
253 1    19.13320573009326    22.35348222650314     3.18831243035235    -0.12305405979294    -0.56241694305026     0.41567706180780
126 1    20.72135925699144    23.90571093477987     1.54027264410525     0.04128126080241     0.29961911039092     1.02192610467300
128 1    23.89415088147201    23.94546895740014     1.61012756077201     0.09372407862922    -0.37184297796762    -0.22903378551018
6145 1    25.48716601326129    25.50610700453293     0.00770161168365     0.37866981092021     0.27779965329929     0.01843844019044
4209 1    25.48952204031807    22.35532954322948     0.00774380596246     0.20485759935753    -0.38327339572729    -0.22611512962254
2191 1    22.28818413338499    25.50646066132215     3.16725675315381     0.60843463162901    -0.17149399388370     0.33418773733310
127 1    22.26381183780327    22.34826303257970     0.04103296212215     0.88309245015649    -0.59367939656992    -0.61979254811203
255 1    22.32564598703884    22.30776657776764     3.20616869671020    -0.03591693406611     0.16397049576184    -0.23332662198401
257 1     0.03529714153906     0.00743353867772     6.37991627599558    -0.47942593003211    -0.21050710043427    -0.22930367458050
130 1     1.61612004001014     1.59910494682881     4.75814708516663    -0.33412454292586    -0.19628648525760     0.27789034372456
258 1     1.61128029726807     1.60708677232410     7.93730971690323     0.08626503802837    -0.12413980183566     0.45260929578350
275 1     3.19014035001078     3.18575680852174     6.34865607627694     0.08848418876481     0.03734398441111     0.57280983582268
132 1     4.80060305424334     1.58086976500616     4.79172151847844    -0.06791748516661     0.32280947407449    -0.18467713619639
260 1     4.78198435127107     1.63982970954273     7.96528931020029     0.00236344214447    -0.62188807010922    -0.04154050399277
261 1     6.40279558832152     0.02226160620440     6.37530623500133    -0.42873774061415    -0.22782260984568     0.09537848058109
277 1     6.38982627734647     3.19892512609690     6.35897411897380     0.09647151574806     0.14763202380149     0.26015621056963
134 1     7.99269922404332     1.62251295479902     4.79467375497164    -0.29923026623819    -0.27074625137528    -0.21451218847061
262 1     7.97991040121683     1.61664832905918     7.99676095695022    -0.18684347455983    -0.11906000323321    -0.35671727482762
279 1     9.59977599197618     3.17668100930333     6.37017339439810    -0.55928346948857     0.24592464878154     0.19622725243016
136 1    11.13541295780570     1.64348201855030     4.76055099176903     0.46970106906548    -1.01676158550214     0.40798431591889
264 1    11.13251528599972     1.62211810214422     7.98194423503983     0.47686840751690    -0.70368509922248    -0.26704416185355
281 1    12.77943797964359     3.15984304039688     6.41509162550465    -0.23645226238774     0.37321196642278    -0.56755262528230
138 1    14.31857217232486     1.58576514465428     4.76765761179432     0.49418760788926     0.09091873221055     0.33439008382877
266 1    14.38339704238032     1.61844662771922     7.98366058874429    -0.56136779560077    -0.49667753296479    -0.28154019259945
283 1    15.96165242783366     3.21638689258503     6.37159449225089    -0.18232629167172    -0.48740497496662    -0.13152034938536
140 1    17.53420282873799     1.57293393945882     4.76291566712830    -0.05099415987035     0.21740973217584     0.39654033966458
268 1    17.51140506897794     1.58249653763414     7.99721080592240     0.53427744527542     0.14824519250072    -0.53816529403093
285 1    19.11413956207642     3.18819135246904     6.39386311895785     0.27461513551190    -0.08929162794790    -0.51796834975791
142 1    20.73032778853295     1.60481682232797     4.82236158955488    -0.23272444952146    -0.12745490143478    -0.56393991992173
270 1    20.74763870868117     1.57377944284334     7.96259056614613    -0.33866319280584     0.22446132455801     0.15001267087735
272 1    23.91973227557084     1.55989331267225     7.96996945285903     0.06835961490379     0.40270437566008     0.09750978480369
144 1    23.90273739252320     1.58818985149283     4.81210501973931     0.41230926181805     0.03000121870223    -0.56095610220262
4369 1    25.50427934367118     3.19739109942830     6.40145108438745     0.34847644592474    -0.19253477312014    -0.27854513438513
271 1    22.34209092199242     0.00034515284874     6.38610396154824    -0.55869916142524    -0.06972511790454     0.20702974621696
287 1    22.33998631764133     3.21408199482739     6.34977469257301    -0.40075626209457    -0.27647398527317     0.82130144760300
289 1     0.00022809508940     6.34402449830854     6.40975808267398    -0.05550742361104     0.52965294187988    -0.49257604366660
146 1     1.62197167210007     4.76605135349186     4.80063234851343    -0.47671276712245     0.14700698533439    -0.18881988873473
274 1     1.59290320274700     4.81386255669170     7.98826540302375     0.21236852439940    -0.64686196219457    -0.17388110570515
291 1     3.16789195102563     6.34638573684214     6.37529063874167     0.56979438353053     0.49481671316021    -0.08407176210349
148 1     4.79039469423517     4.78633238695826     4.78870472485861     0.13910075400685    -0.12678609340229    -0.07165147105648
276 1     4.78957361451723     4.80899115466443     7.96675048433802    -0.01655899364797    -0.38311397564725     0.07974394844913
293 1     6.39106183495774     6.40556942237870     6.38802401915102    -0.19946997475273    -0.40239996357292    -0.31578395521374
150 1     8.00328920462860     4.79192989078580     4.75185587499463    -0.59554664957927    -0.05959377146552     0.36489151502694
278 1     8.00107958999352     4.80319521679948     7.96338247928228    -0.32224515221262    -0.34537296088183    -0.00563990975881
295 1     9.55555391719633     6.36830826660681     6.38068891586458     0.28124990528029     0.16565682797559     0.11211044564503
152 1    11.11833003723699     4.74976610516037     4.77267440344262     0.81764712844705     0.62911992509334     0.37762985407650
280 1    11.16313566382310     4.76634833955183     7.96975821587405     0.09191916212938     0.47806207018945    -0.05846693713816
297 1    12.78099804769863     6.39065663852043     6.36437035692463    -0.50832640917452    -0.44661864159111     0.35339652757629
154 1    14.32582882867961     4.76427938308041     4.76809680920642     0.48114349110229     0.10802054493386     0.27636659484155
282 1    14.35555837188441     4.76269146144975     7.98174231461742     0.05452646025268     0.47269980788102    -0.21562427950663
299 1    15.93764519522650     6.38681240524779     6.37582018835816     0.12829384976347    -0.17938907380618     0.01166505999440
156 1    17.53538346804885     4.78019007816858     4.77166602806290    -0.10002520341795    -0.17676877035475     0.09606767993359
284 1    17.53906070762621     4.81271395680547     7.97448245294611    -0.12846643273454    -0.34734181476757     0.06558256160266
301 1    19.11483854590013     6.37682275688103     6.37314082620320     0.37239839357574    -0.03229852295710    -0.01988542142838
158 1    20.71701589253081     4.78229087711207     4.78801287172498     0.00981143102285     0.00085036273830    -0.05156596613777
286 1    20.71409959256039     4.79402932949036     7.97637331432559     0.36198492133521    -0.18104672384112    -0.03333265480218
288 1    23.96739902670204     4.76964159089913     7.97505046156028    -0.90549312383848     0.12340569061553     0.07430185437370
160 1    23.88346224678588     4.77805620562242     4.79778870549827     0.54865999559801     0.40713238184635    -0.34646996327209
303 1    22.33345763723705     6.39991444461046     6.39120029753943    -0.19171438211523    -0.48867856685159     0.05914581891913
162 1     1.59542834823051     7.95217633008894     4.76748763560919     0.02810759194454     0.34741422642687     0.27483350495074
290 1     1.63231444640578     7.93616054328044     7.93751254917789    -0.49901973986864     0.60873632415742     0.33237807105659
307 1     3.19095137696516     9.56735142025382     6.33747024292399    -0.19749169854501    -0.23801316605289     0.55649017578306
164 1     4.80840021877400     7.95242302462626     4.77692448789809    -0.43444442030494     0.22806359935955     0.05991496020099
292 1     4.80828631747711     7.97010593542525     7.96109509848645    -0.39607715089641     0.19190413667372     0.13328518821708
309 1     6.34436290448674     9.60225662794988     6.37076572615238     0.61128078745844    -0.52470567330547     0.20818467586945
166 1     7.94161221774516     7.98768738864888     4.79221524643288     0.45222254453421    -0.10847192414027    -0.24427716131452
294 1     7.96294806330275     7.97724840784972     7.94487996626495     0.25715621273781     0.27031786043988     0.40925728066028
311 1     9.57064933292623     9.57819340313129     6.37413578338080     0.00441364441462    -0.16551264617834     0.07433185372037