ITEM: TIMESTEP
20
ITEM: NUMBER OF ATOMS
8192
ITEM: BOX BOUNDS pp pp pp
0.0000000000000000e+00 5.1024000000000001e+01
0.0000000000000000e+00 5.1024000000000001e+01
0.0000000000000000e+00 5.1024000000000001e+01
ITEM: ATOMS id type x y z fx fy fz
145 1     0.01324168005490     3.19754090299613     3.22029237668984    -0.30903166890964    -0.15224930993231    -0.20275521241854
2 1     1.62055679985850     1.61229236292954     1.59383088370509    -0.32396332112438    -0.14713027085844    -0.22202888732681
131 1     3.19350053791745     0.01007555377245     3.18716331327160     0.11597933972191    -0.04765267396336    -0.21359618023047
147 1     3.17959399866195     3.17866009187470     3.19502487576819     0.32756670342583     0.12696327327185    -0.34421640943117
4 1     4.81414883642282     1.58283532692864     1.59419385280824    -0.16234467114085     0.35415296360582    -0.01035390087979
149 1     6.35388334853870     3.19164989224387     3.19504996081574     0.47812461855396    -0.00031368086015    -0.24729663294391
5 1     6.41788763073548     0.00495761396092     0.03771388250469    -0.59622685374169    -0.02404386867308    -0.57466907383563
6 1     8.02653892598872     1.59486010465684     1.62991587667467    -0.88222088768972     0.06366926425052    -0.41555244195513
151 1     9.59616261556207     3.19584635698202     3.15162747983140    -0.56858173538249     0.02983272516171     0.59399086836318
23 1     9.58145826610903     3.19662375965477     0.03240162017121     0.09893477483807    -0.01665488003166    -0.37363002242044
8 1    11.16712193974031     1.59430735541224     1.62525525743159     0.07295097175003    -0.07461469993929    -0.76267580606159
137 1    12.77233055927973     0.01796728443745     3.17365498047514    -0.40139438648170    -0.27767397786411     0.35814430885539
153 1    12.76365381922664     3.20999207080724     3.20109775033680    -0.04623773175692    -0.46204926174490    -0.15570612437040
9 1    12.73023455659547     0.00342783117869     0.00162013344484     0.11364390372214     0.00194768880695    -0.22586403078635
10 1    14.31781144311311     1.58820696565328     1.57911386549613     0.56032840693959     0.15292526605645     0.09100004968288
155 1    15.94775403650879     3.16417942364370     3.15271188187059    -0.14844173906787     0.19968122858569     0.49697023398694
12 1    17.54827601015645     1.59447885465438     1.61320690851534    -0.21056718496036    -0.24381695576592    -0.56088223979861
157 1    19.13771132911229     3.19772788287631     3.11445644922049     0.05016235369467    -0.41161685337418     1.11049269219643
14 1    20.72444275650633     1.57118824618140     1.60431043967591     0.19242241379397     0.39819054817119    -0.06521174085234
16 1    23.94760389131696     1.57014106538576     1.57534362886117    -0.48158136750025     0.45921633734529     0.52473112001586
4241 1    25.49609916215883     3.18774868326504     3.21602150115687     0.24913878528149     0.02086309893117    -0.23951227098159
143 1    22.33940858054657     0.00763343501649     3.18528825919220    -0.40170822986517     0.12312127039682     0.14236739005328
159 1    22.30902025885466     3.17893313518552     3.21282722525740     0.12301357251223     0.15058741643893    -0.48820207721153
33 1     0.02677534616723     6.35678043643825     0.04015791036799    -0.42927760463251     0.35430160536010    -0.65237227246129
18 1     1.56398200953021     4.80546506332604     1.62362930518168     0.52677275417847    -0.40636486784022    -0.06517972066514
35 1     3.20513011892741     6.31475127594344     0.04783526387532    -0.20850779370757     1.31463869447025    -0.59641698143882
163 1     3.19238254921130     6.35237336384293     3.19737661489311    -0.13220822676523     0.56391841147833     0.08691938280698
20 1     4.76827140499132     4.83855438321183     1.59078642127916     0.31381467665501    -1.19042486723670     0.17778541375450
37 1     6.39072804938239     6.37829618599061     0.02425564945352    -0.14003936195545     0.08527062375393    -0.42635413560445
165 1     6.36237375613830     6.37040206499375     3.18064335739398     0.40994586447889     0.13925491517886     0.30764864211296
22 1     7.96700863032678     4.80225639239785     1.57897421184302     0.07663208713827    -0.40685587250183     0.32401180349546
39 1     9.58011664467806     6.39429742923391     0.01564778542373     0.01234854226451    -0.16311113853563    -0.31190345046305
167 1     9.57216340007459     6.38760155772912     3.22356574484653    -0.11563370276275    -0.17987357186847    -0.40491046579334
24 1    11.17242722983731     4.77836151518724     1.60552192848593    -0.11431961420025     0.13445500963056    -0.21007458423884
41 1    12.76336905864863     6.34511714035790     0.00830395751238    -0.12687591754750     0.50814897935390    -0.10701395707168
169 1    12.75069254940749     6.33248582167491     3.22866133304722    -0.03320846745881     0.72784132752741    -0.54997583347941
26 1    14.32952559799167     4.79644278252163     1.57616595824681     0.34721570628248    -0.22579802573637     0.24299797775036
43 1    15.95592207884287     6.37869523028427     0.05024582155017    -0.15663802912296     0.09883909753359    -0.83279438722121
171 1    15.94977420156908     6.39118033164928     3.19117527128699    -0.09310548452117    -0.40269685053774     0.11119516773092
28 1    17.53604031263880     4.75319303088050     1.61815612170575    -0.05718589688174     0.54492991989193    -0.65887157134988
173 1    19.11888484951713     6.35863618901442     3.16004782159148     0.28206425095709     0.39225320926744     0.42711551751405
30 1    20.72923158955124     4.79721114593925     1.60983482040643     0.18262568833070    -0.21461582278289    -0.38525020183570
32 1    23.90432761604067     4.77144738517349     1.57943820534537     0.21960369035399     0.14964779774231     0.32458839817085
47 1    22.34199650461759     6.38026376794765     0.02265731509633    -0.06037388673565    -0.10267726774536    -0.39257320565251
175 1    22.30661853196622     6.41658183951701     3.19418811042063     0.24334144249321    -0.81349617394198    -0.05621324729949
177 1     0.01923548274861     9.55966053670323     3.18135318938892    -0.21157901392668     0.01512922918936     0.17909503704501
34 1     1.58848208133924     7.99368353954991     1.61071624032610     0.30865230595873    -0.40920444374372    -0.22577754362401
51 1     3.17166987805886     9.56391201412364     0.02388264442043     0.37196835633384    -0.12779258442372    -0.16759383881108
179 1     3.20805829229991     9.59753843250173     3.20968787460528    -0.23813105851250    -0.59994369684085    -0.29599072218710
36 1     4.79800497898735     7.99251008285618     1.61905584798885    -0.28347383166561    -0.14687828713254    -0.39285007020905
53 1     6.38199187029529     9.59624767077781     0.04585705674233    -0.34737035510255    -0.72742447031480    -0.92089196305009
181 1     6.38429479036494     9.56344683851007     3.14835033507600     0.06037071563848     0.03264931107047     0.78324111517407
38 1     8.00660286473825     7.93958423551141     1.59285200975349    -0.52785161624176     0.39637977194595     0.09922580001913
55 1     9.53603496849857     9.61584605850982     0.00209973849291     0.71300211052516    -1.06099164769953    -0.19326834289986
183 1     9.54792980304357     9.53934891054923     3.16885451956035     0.49012474055107     0.36492830737899     0.49532181777283
40 1    11.14963169812470     7.95173159621648     1.61531306814017     0.40457173266259     0.24824900466172    -0.18790466342993
185 1    12.81153697987823     9.56590144317973     3.18830373017793    -1.03290911850631    -0.03400327560216     0.14318656364929
42 1    14.35362611223117     7.98665787123167     1.62393370091986    -0.04215768048107    -0.43490551120636    -0.40897285505720
59 1    15.96081893177884     9.56169406451833     0.02288472099806    -0.34757387236148     0.08401659653757    -0.33664462423607
187 1    15.96628681687482     9.54213900300585     3.21273303881044     0.05371401982236     0.33642646303216    -0.29488415204049
44 1    17.55231040061952     7.96724869566667     1.58875638425973     0.04956885059331    -0.00169011581143     0.19601879268179
61 1    19.12124833886978     9.55794373408731     0.02293062842446     0.16222050010529     0.37514614757437    -0.33266859941547
189 1    19.16348461394397     9.60720833345941     3.22142860233071    -0.21705613364006    -0.68678909732438    -0.52557981428268
46 1    20.74825787870057     7.97161909836404     1.55175473334365    -0.38786508880932     0.17684468083128     0.71632301509046
48 1    23.92112596204227     7.97982441864859     1.59424483406795    -0.06557171611086    -0.14993381268178    -0.16429304695411
4145 1    25.48450259955824     9.57209396025877     0.00737789220893     0.24602515008885    -0.18806742174253     0.03288163438652
4273 1    25.48336788210737     9.57276655516825     3.21612342650557     0.38152094949918     0.08238373198643    -0.50622237154720
191 1    22.33060697504765     9.52908628074484     3.17801705291996    -0.32709868498556     0.81159321576285     0.03052617260082
193 1     0.00889659853520    12.72090115634790     3.16128366349280    -0.41981061671703     0.68693800429399     0.39669444377740
50 1     1.57632047162799    11.13389027557037     1.60273999427418     0.26111717266498     0.47418127406344    -0.38947957068216
66 1     1.58590798289748    14.34462280727811     1.59088440430125     0.18313968044758    -0.12597231885811     0.16807405925304
67 1     3.18101861562405    12.78107540089534     0.02167072323030    -0.03433648560325    -0.41586351441003    -0.19987611000436
195 1     3.17112878061482    12.76013087735372     3.19866202758555     0.31033415428418     0.12823206550928    -0.26840051182044
52 1     4.77206244054162    11.16879815326448     1.58681811806034     0.11360040822496     0.09257256481574     0.21465180935189
68 1     4.81959369305071    14.35746755513718     1.59089886703225    -0.51344064805662    -0.07112137145835     0.11030953146782
197 1     6.35235483846249    12.74135541652162     3.18705392106585     0.53764788341681     0.23099842430351    -0.01016566449669
54 1     7.99935899448208    11.11474595487110     1.56459051680527    -0.57934286629684     0.96871201093375     1.02742016832073
70 1     7.97581034227244    14.40593945984019     1.56653412742917     0.07560752303846    -1.11304537545568     0.57913467542191
71 1     9.57578056741750    12.75420539327969     0.03127507016607    -0.34659158598383     0.35500871869075    -0.64436188594054
199 1     9.54077312156844    12.76324197128550     3.16133211210911     0.16831214664360    -0.02839326918517     0.54151317202807
56 1    11.14436178496912    11.15530975871411     1.59930097267096     0.27424583261212    -0.15991675215485     0.18057287838020
72 1    11.14652286711272    14.34216023173716     1.56396598234309     0.17203303737064     0.26062502681494     0.65882793809079
73 1    12.73723791866368    12.73030267336534     0.01046656881905     0.42717228294819     0.32645209591654    -0.28044461674974
201 1    12.75361346882103    12.79107749010269     3.12828030447195     0.00267197657522    -0.63715504733005     1.15376117411450
58 1    14.33165235211610    11.12382400183882     1.63341242882525     0.42494071779095     0.56569584316356    -0.64834209305837
74 1    14.34826536765716    14.33231053859423     1.59122306766734    -0.08947253223082     0.31001990172367    -0.07972794610666
75 1    15.94632342636971    12.74963254700909     0.01865224768808    -0.20301212521707    -0.00612909496375    -0.39949126795838
203 1    15.97873809342090    12.76361161381574     3.17335913303143    -0.44898795429918    -0.43606685243951     0.33682554977859
60 1    17.55475418783682    11.14992170166263     1.59186885089245    -0.22967461356004     0.11486204198116     0.05924883226679
76 1    17.52546751615555    14.34151021661143     1.63505830130134     0.32685641018089     0.10311826670578    -0.62394543631180
205 1    19.16211195565911    12.77445982477860     3.19302367161246    -0.28270292953586    -0.16138099866773     0.19310209285276
62 1    20.72278414750148    11.19462230287279     1.61708094913761     0.08009672371984    -0.65810780092311    -0.29516501415913
78 1    20.71899210433791    14.30879898231514     1.58787243667955    -0.09240266719437     0.92304759433954     0.10685060226814
80 1    23.90079566556132    14.32970558226854     1.54163540468317     0.29647639673642     0.33975054165953     0.97140872437038
64 1    23.89511462432481    11.15103557932872     1.62344642181073     0.18522798255558     0.07535134466453    -0.34356072186467
4161 1    25.49251108143751    12.72767350447086     0.02314128136730     0.21924114400354     0.27271738663526    -0.26471639983305
207 1    22.35752979005585    12.78633663493180     3.15771200115073    -0.33269156254064    -0.62808820315411     0.65600412239441
209 1     0.05033335798688    15.94718904055597     3.20259903733550    -0.65515055610080    -0.05492688237670    -0.00656785935697
82 1     1.58225470699992    17.51141219224085     1.57582686871054     0.21269999402249     0.49477504360735     0.27579872454611
211 1     3.20786003625442    15.92578531167135     3.15914342042140    -0.04126082517007     0.22638887129095     0.62416044547955
84 1     4.75642371442659    17.55083882341370     1.59884112767882     0.30013291873876    -0.17907937597708    -0.14907514073249
85 1     6.40801338718619    15.95145898441264     0.00584504579743    -0.61312847177814     0.04488964066400    -0.22092476997234
213 1     6.40486874399025    15.97084316809736     3.16926636574435    -0.43067755691256    -0.41930159675521     0.29022551930180
86 1     7.94283179776849    17.51216748431113     1.61388487636769     0.66127216779345     0.95437116552809    -0.42956467308935
87 1     9.57349976010259    15.95400738354921     0.01534177168630    -0.14534701854363     0.24335015560522    -0.32826188036404
215 1     9.59624064559173    15.96371543362277     3.19895558661375    -0.29799389369795    -0.25935101899341    -0.20878598415732
88 1    11.17860381828311    17.55667352882523     1.59189287900580    -0.42130306786856    -0.01541452029431     0.08804907953091
89 1    12.71169209907616    15.94748488571595     0.01193945963064     0.76665148980276    -0.10917203583505    -0.20858069055997
217 1    12.76164140696338    15.96389777511009     3.19577432812460    -0.05201296083974    -0.37413080184659    -0.08528188923352
90 1    14.33101736757446    17.56163354017190     1.59395903037690     0.40119233850759    -0.47827720399866    -0.06585644001481
91 1    15.93764873335554    15.93653474722863     0.04134436697965    -0.23253644726688     0.17956019303384    -0.51361103897215
219 1    15.93946948218230    15.90502929581157     3.20196805953589    -0.07520994051044     0.67689377373893     0.12847781932585
92 1    17.53060841514629    17.52031004172964     1.61007259989831    -0.14819814646862     0.10560082728673    -0.22102033926588
221 1    19.12018753003439    15.96156097188029     3.21824629802159     0.27375466324471    -0.52254449952903    -0.38012048682317
94 1    20.70627048844699    17.53174224886215     1.58611958843962     0.38459862906203    -0.31153178285993     0.16083914904023
96 1    23.95067686093723    17.54196914653519     1.60524535304763    -0.47065436366559    -0.29468132881243    -0.10551087726145
4305 1    25.49399453752941    15.92951858646072     3.17442232441909     0.30148695081272     0.13380598996589     0.06445576923699
223 1    22.32385469489169    15.91787822415333     3.17070091686121    -0.12257431792445     0.29425020629561     0.20549141056751
98 1     1.59259178965066    20.72836135674253     1.59334654618822     0.11361038409028    -0.03665818524695    -0.10960785992430
227 1     3.17763323837880    19.14163141676553     3.20182996541615    -0.09338714607176    -0.23325133130718    -0.30272785731161
100 1     4.79885042033661    20.71122066328921     1.59710618754658    -0.33875037955918     0.28991324393758    -0.36992464793764
101 1     6.40534358169883    19.14697708836688     0.00212474689400    -0.17303094924262    -0.04007785366296    -0.05578630489972
229 1     6.32755059918531    19.13308663114695     3.16018941412380     0.77051924625151     0.09713592260758     0.36590148819998
102 1     7.95063564753613    20.74463008281371     1.59229766229019     0.30243823895013    -0.27667256170008    -0.01467040188958
231 1     9.53621098583675    19.17272133829397     3.17808771383379     0.41098900319227    -0.46280534242384     0.13479842970924
104 1    11.18504383361085    20.73938173328483     1.57639535387688    -0.11534706959892    -0.19942442390858     0.36862245475256
233 1    12.79910477150493    19.12749798118828     3.18683434054546    -0.88324977830665     0.25548906897618    -0.03007635570512
106 1    14.37839602717922    20.73550359205127     1.60232813578164    -0.25872531026363    -0.19165503003062    -0.17726148641993
235 1    15.92855955731782    19.13669302811920     3.19970798774764     0.44966735624839    -0.39015132339160    -0.24571588558252
108 1    17.57059320527322    20.68804476119092     1.57408788506251    -0.44472403614093     0.35648856984756     0.28923740207232
237 1    19.12628699317983    19.11988322895120     3.14448631438075     0.02569929970686     0.22887828202809     0.73794194961023
110 1    20.71829814310170    20.71890679735078     1.60699487914993     0.23742927208922     0.01436340426579    -0.09792130764290
112 1    23.92105859219187    20.70990671595787     1.58483359065223    -0.30855509486833     0.43180224075043     0.10645555751813
4321 1    25.51142596004583    19.11724599452328     3.18428091960322     0.12312434946696     0.11919932718076     0.09602403976258
111 1    22.31892760522543    19.11957955079660     0.03455482913638     0.18996946091866     0.36466264782500    -0.52817279122148
239 1    22.30224519892715    19.12839942788015     3.17078738795365     0.21500849538883    -0.20305862041023     0.20738268166881
241 1     0.01776379872839    22.34720356527686     3.15645752154287    -0.23085676910772    -0.26120089085754     0.46337061486934
114 1     1.59698361338529    23.95052039995391     1.57415852677091    -0.09880832029762    -0.62028136892423     0.13173519122117
2179 1     3.21739332418753    25.48175506054561     3.19377678446667    -0.17904067042022     0.40649082923488     0.00556839403789
2051 1     3.17747487050275    25.48803281575476     0.01978278136540     0.03554450924758     0.34896738531740    -0.46877943311462
115 1     3.22489472584486    22.31751454432601     0.00304501326833    -0.55122839316172    -0.08273452123614    -0.17378683247744
243 1     3.18221352803552    22.29953022207388     3.15791209115504     0.07035181023041     0.20917077285996     0.41093863956351
116 1     4.78473064120873    23.90817960473802     1.61452263991540     0.18645602473897     0.15033148001454    -0.40474180469977
245 1     6.33456911696499    22.33745713524110     3.23053799174516     0.73176883766169    -0.35329839426806    -0.69525777817706
118 1     8.01013825288007    23.88469235442207     1.58998775253688    -0.77777890057836     0.52403945619594    -0.04908715844837
2055 1     9.61360930979766    25.49535929230215     0.00739756639813    -0.90525159126399     0.19412127570612    -0.24143157650038
247 1     9.59795517789092    22.31252823967347     3.18640534787038    -0.47499682521657     0.14852772968607     0.12222971446672
120 1    11.13256275445244    23.89251918748108     1.56989409258062     0.77304524599564     0.28598510261600     0.29515997550907
2185 1    12.73828365797740    25.49746353727682     3.19497683539291     0.18177790849610     0.16667579792940     0.00963838074607
121 1    12.77767657662739    22.30048367846858     0.00080738375299    -0.37847469335128     0.46556037294036    -0.10451728319753
249 1    12.77076810928178    22.30863784806265     3.19699834419078    -0.31075832723295     0.23638930004130    -0.09731031957481
122 1    14.34626657950828    23.87772852567374     1.62144821781604    -0.02407332587968     0.54519661038992    -0.41340469692592
2187 1    15.92418707643306    25.50803459982010     3.20316741595814     0.26944024120273    -0.08601290134371    -0.07678639682224
123 1    15.97691611545876    22.28483278563283     0.01155318204195    -0.28966884079195     0.59935988743130     0.00152054492515
251 1    15.90927926648742    22.32391844458191     3.20484227696090     0.72739625753551    -0.00959316588161     0.00184744313501
124 1    17.55643485942217    23.90161313800632     1.64283221033028    -0.35235977235852     0.32413449327139    -0.55540122387668
125 1    19.14663362650029    22.30923547788645     0.05206460563430    -0.44727267835654    -0.02250179770732    -0.76092947150433
253 1    19.13320573009326    22.35348222650314     3.18831243035235    -0.11709622561104    -0.54586481913779     0.40291209033862
126 1    20.72135925699144    23.90571093477987     1.54027264410525     0.01001203101538     0.31268470417649     1.03314354675938
128 1    23.89415088147201    23.94546895740014     1.61012756077201     0.08890024988239    -0.37535547447537    -0.23212862059949
6145 1    25.48716601326129    25.50610700453293     0.00770161168365     0.37266183396546     0.27385964497283     0.01124923892126
4209 1    25.48952204031807    22.35532954322948     0.00774380596246     0.19733119110597    -0.37223857170976    -0.22851866402706
2191 1    22.28818413338499    25.50646066132215     3.16725675315381     0.60122784837252    -0.17905430024269     0.32939623297058
127 1    22.26381183780327    22.34826303257970     0.04103296212215     0.89850511768229    -0.60314939448596    -0.63402627584310
255 1    22.32564598703884    22.30776657776764     3.20616869671020    -0.04538805989036     0.17148664497325    -0.23423821713077
257 1     0.03529714153906     0.00743353867772     6.37991627599558    -0.48512318584213    -0.19679266176723    -0.23405893045482
130 1     1.61612004001014     1.59910494682881     4.75814708516663    -0.34160293956811    -0.19490070098917     0.27784211064667
258 1     1.61128029726807     1.60708677232410     7.93730971690323     0.07393306676545    -0.12488818390342     0.44906994309774
275 1     3.19014035001078     3.18575680852174     6.34865607627694     0.08046471104166     0.03545951471064     0.57143423529120
132 1     4.80060305424334     1.58086976500616     4.79172151847844    -0.07451053120304     0.31859054895454    -0.18657258715724
260 1     4.78198435127107     1.63982970954273     7.96528931020029     0.00991239021465    -0.62106923550414    -0.02933450015226
261 1     6.40279558832152     0.02226160620440     6.37530623500133    -0.42932410493464    -0.23249868841488     0.10135231207059
277 1     6.38982627734647     3.19892512609690     6.35897411897380     0.09135957489838     0.14104106849075     0.26823017274972
134 1     7.99269922404332     1.62251295479902     4.79467375497164    -0.30624151825392    -0.26733821310296    -0.20172952523838
262 1     7.97991040121683     1.61664832905918     7.99676095695022    -0.19904946675292    -0.11633791687795    -0.35907384839228
279 1     9.59977599197618     3.17668100930333     6.37017339439810    -0.56617769353814     0.24161381106851     0.19737822379928
136 1    11.13541295780570     1.64348201855030     4.76055099176903     0.46453555250903    -1.01798760781025     0.40663367089754
264 1    11.13251528599972     1.62211810214422     7.98194423503983     0.47933266609275    -0.70074619319054    -0.25499538299383
281 1    12.77943797964359     3.15984304039688     6.41509162550465    -0.23341666136686     0.38525187397551    -0.56597925947654
138 1    14.31857217232486     1.58576514465428     4.76765761179432     0.49671880168888     0.07911858257853     0.33018018445685
266 1    14.38339704238032     1.61844662771922     7.98366058874429    -0.55807579636839    -0.49088137115887    -0.28627309501432
283 1    15.96165242783366     3.21638689258503     6.37159449225089    -0.18058821779715    -0.49427598432473    -0.12296849460391
140 1    17.53420282873799     1.57293393945882     4.76291566712830    -0.04881479278038     0.22259444608632     0.37943631273107
268 1    17.51140506897794     1.58249653763414     7.99721080592240     0.52559368979729     0.15404144262497    -0.53867880433888
285 1    19.11413956207642     3.18819135246904     6.39386311895785     0.27183364428113    -0.07693365947055    -0.51707696630600
142 1    20.73032778853295     1.60481682232797     4.82236158955488    -0.24621425352711    -0.12990221054667    -0.55211873799796
270 1    20.74763870868117     1.57377944284334     7.96259056614613    -0.33493400798916     0.22049209124328     0.16431017904037
272 1    23.91973227557084     1.55989331267225     7.96996945285903     0.08637950567379     0.40273699098372     0.08569067912278
144 1    23.90273739252320     1.58818985149283     4.81210501973931     0.40776336113742     0.04501272001057    -0.56390001918917
4369 1    25.50427934367118     3.19739109942830     6.40145108438745     0.35279060117334    -0.18955870906865    -0.28190988305427
271 1    22.34209092199242     0.00034515284874     6.38610396154824    -0.55783427510147    -0.06185224784660     0.18977138869582
287 1    22.33998631764133     3.21408199482739     6.34977469257301    -0.37040516658881    -0.26424859319580     0.80010454315184
289 1     0.00022809508940     6.34402449830854     6.40975808267398    -0.06312988338292     0.50837967272400    -0.48845685767293
146 1     1.62197167210007     4.76605135349186     4.80063234851343    -0.48228522909011     0.15625616158689    -0.17737905807016
274 1     1.59290320274700     4.81386255669170     7.98826540302375     0.21003584139176    -0.65461474024544    -0.19505254372586
291 1     3.16789195102563     6.34638573684214     6.37529063874167     0.55547450431360     0.48616090141394    -0.08718211637873
148 1     4.79039469423517     4.78633238695826     4.78870472485861     0.13843515978498    -0.12603031282587    -0.07838356401015
276 1     4.78957361451723     4.80899115466443     7.96675048433802     0.00353998289713    -0.37678966107255     0.08065634040204
293 1     6.39106183495774     6.40556942237870     6.38802401915102    -0.19692705118028    -0.40220416521382    -0.31132073151032
150 1     8.00328920462860     4.79192989078580     4.75185587499463    -0.60528927696370    -0.05796451155636     0.35187169905182
278 1     8.00107958999352     4.80319521679948     7.96338247928228    -0.32524499072465    -0.33827069809018    -0.00782563157472
295 1     9.55555391719633     6.36830826660681     6.38068891586458     0.29238453460507     0.16126791808986     0.12365565088342
152 1    11.11833003723699     4.74976610516037     4.77267440344262     0.80594505739244     0.63315206834068     0.39550772622109
280 1    11.16313566382310     4.76634833955183     7.96975821587405     0.09527365102592     0.47660844635622    -0.05813307410400
297 1    12.78099804769863     6.39065663852043     6.36437035692463    -0.49822219530530    -0.43114642515482     0.34983064714740
154 1    14.32582882867961     4.76427938308041     4.76809680920642     0.46969998393558     0.10209619883670     0.28525926927726
282 1    14.35555837188441     4.76269146144975     7.98174231461742     0.04406809284549     0.47806375091691    -0.21862438325193
299 1    15.93764519522650     6.38681240524779     6.37582018835816     0.13658927385770    -0.17078474576095     0.02311776512988
156 1    17.53538346804885     4.78019007816858     4.77166602806290    -0.10176852174830    -0.16793424089119     0.10791022614515
284 1    17.53906070762621     4.81271395680547     7.97448245294611    -0.13111021134075    -0.34302645424959     0.06430469508518
301 1    19.11483854590013     6.37682275688103     6.37314082620320     0.37489114097320    -0.03887981540241    -0.02217400841606
158 1    20.71701589253081     4.78229087711207     4.78801287172498    -0.00159588176599     0.00894943630800    -0.05034891688958
286 1    20.71409959256039     4.79402932949036     7.97637331432559     0.35790455932992    -0.17543292274362    -0.03739141263516
288 1    23.96739902670204     4.76964159089913     7.97505046156028    -0.90300474446418     0.12820483595683     0.06580907613589
160 1    23.88346224678588     4.77805620562242     4.79778870549827     0.54219535394365     0.38530618987171    -0.33457440355812
303 1    22.33345763723705     6.39991444461046     6.39120029753943    -0.18545606103134    -0.47595598128669     0.05470309918188
162 1     1.59542834823051     7.95217633008894     4.76748763560919     0.03719932089770     0.34601258027725     0.26635855356781
290 1     1.63231444640578     7.93616054328044     7.93751254917789    -0.48845955106797     0.60705992493171     0.34318408451209
307 1     3.19095137696516     9.56735142025382     6.33747024292399    -0.19929362070073    -0.23932231780631     0.55496034418921
164 1     4.80840021877400     7.95242302462626     4.77692448789809    -0.43139223206126     0.23626494632885     0.05591658306963
292 1     4.80828631747711     7.97010593542525     7.96109509848645    -0.39215381274612     0.17850688360472     0.14328939839913
309 1     6.34436290448674     9.60225662794988     6.37076572615238     0.60253288842432    -0.53398636622497     0.19158823513262
166 1     7.94161221774516     7.98768738864888     4.79221524643288     0.44971321423996    -0.10630926515504    -0.24931002486243
294 1     7.96294806330275     7.97724840784972     7.94487996626495     0.25856197700132     0.26457101507209     0.40331803832988
311 1     9.57064933292623     9.57819340313129     6.37413578338080     0.00241267873138    -0.16954465563132     0.07129321966291