LAMMPS (4 May 2022)
  using 1 OpenMP thread(s) per MPI task
variable                    T equal 300
variable                    R equal 984523

units		                metal
dimension                   3
boundary	                p p p
atom_style	                atomic

lattice                     bcc 3.189
Lattice spacing in x,y,z = 3.189 3.189 3.189
region                      box block 0 30 0 30 0 30
create_box                  1 box
Created orthogonal box = (0 0 0) to (95.67 95.67 95.67)
  3 by 4 by 4 MPI processor grid
create_atoms                1 box
Created 54000 atoms
  using lattice units in orthogonal box = (0 0 0) to (95.67 95.67 95.67)
  create_atoms CPU = 0.005 seconds

pair_style	                tensormd
pair_coeff	                * * ../../../W_k32_snapshot.npz W interp 0.0001 1
Use interpolation: dr = 0.0001, algo = batch

mass                        1 183.8

neighbor                    1.0 bin
neigh_modify                every 1 delay 0 check yes

thermo                      20
thermo_style                custom step cpu temp ke pe etotal press vol pxx pyy pzz

velocity                    all create $T $R dist gaussian
velocity                    all create 300 $R dist gaussian
velocity                    all create 300 984523 dist gaussian
fix                         1 all nvt temp $T $T 0.1
fix                         1 all nvt temp 300 $T 0.1
fix                         1 all nvt temp 300 300 0.1
# dump                        1 all custom 1 dump.fnn id type x y z fx fy fz

run                         1000
Neighbor list info ...
  update every 1 steps, delay 0 steps, check yes
  max neighbors/atom: 2000, page size: 100000
  master list distance cutoff = 7
  ghost atom cutoff = 7
  binsize = 3.5, bins = 28 28 28
  1 neighbor lists, perpetual/occasional/extra = 1 0 0
  (1) pair tensormd, perpetual
      attributes: full, newton on
      pair build: full/bin/atomonly
      stencil: full/bin/3d
      bin: standard
Per MPI rank memory allocation (min/avg/max) = 192.1 | 192.7 | 193.2 Mbytes
   Step          CPU            Temp          KinEng         PotEng         TotEng         Press          Volume          Pxx            Pyy            Pzz      
         0   0              300            2093.9756     -690382.96     -688288.99      1556.5081      875643.49      1567.5001      1543.4321      1558.5921    
        20   2.3052655      210.82081      1471.5121     -689756.79     -688285.28      5618.0014      875643.49      5633.0055      5607.8045      5613.1942    
        40   4.8015916      63.700281      444.62277     -688717.26     -688272.63      11807.877      875643.49      11830.89       11803.318      11789.424    
        60   7.3362143      46.607208      325.31452     -688591.26     -688265.94      11961.986      875643.49      11983.887      11960.472      11941.6      
        80   9.8605186      149.43306      1043.0306     -689291.43     -688248.4       7295.428       875643.49      7306.768       7292.1537      7287.3624    
       100   12.353386      216.62883      1512.0516     -689728.62     -688216.57      4995.4237      875643.49      5002.5637      4988.6441      4995.0633    
       120   14.826496      192.38001      1342.7968     -689526.77     -688183.97      7035.807       875643.49      7048.2723      7029.4308      7029.7179    
       140   17.303251      151.21373      1055.4596     -689209.82     -688154.36      9181.1459      875643.49      9195.2277      9176.4468      9171.7633    
       160   19.802283      146.45385      1022.2359     -689148.24     -688126.01      9120.5818      875643.49      9124.1531      9115.7044      9121.888     
       180   22.313799      151.70058      1058.8577     -689154.92     -688096.07      8773.6627      875643.49      8761.9147      8770.1302      8788.9433    
       200   24.829005      150.75575      1052.2628     -689117.52     -688065.26      9218.671       875643.49      9200.9004      9217.6971      9237.4155    
       220   27.328097      169.75018      1184.8424     -689217.48     -688032.64      8912.5354      875643.49      8903.793       8912.5254      8921.2879    
       240   29.820604      200.97113      1402.7621     -689398.53     -687995.77      7764.8042      875643.49      7771.1562      7765.162       7758.0942    
       260   32.31425       195.10714      1361.8319     -689319.52     -687957.69      8089.5316      875643.49      8103.4093      8089.0858      8076.0998    
       280   34.822614      155.3114       1084.061      -689006.79     -687922.73      10085.582      875643.49      10094.354      10078.907      10083.486    
       300   37.335767      146.55597      1022.9487     -688913.51     -687890.57      10864.095      875643.49      10860.358      10854.838      10877.09     
       320   39.852635      187.83666      1311.0846     -689165.39     -687854.3       9373.5592      875643.49      9360.8249      9371.1573      9388.6953    
       340   42.353983      215.43598      1503.7256     -689316.68     -687812.95      8328.6261      875643.49      8315.8579      8333.9094      8336.1111    
       360   44.856551      191.67728      1337.8918     -689110.83     -687772.94      9578.7276      875643.49      9576.8048      9582.0427      9577.3352    
       380   47.369409      165.9427       1158.2665     -688894.14     -687735.88      11022.909      875643.49      11034.789      11015.35       11018.589    
       400   49.881648      184.72938      1289.3961     -688987.2      -687697.81      10570.711      875643.49      10587.331      10555.93       10568.873    
       420   52.391485      215.43367      1503.7094     -689159.16     -687655.46      9542.3253      875643.49      9548.3253      9538.6442      9540.0065    
       440   54.906853      210.38356      1468.4601     -689081.29     -687612.83      10013.638      875643.49      10006.302      10026.918      10007.695    
       460   57.420299      187.67519      1309.9575     -688882.33     -687572.37      11257.013      875643.49      11253.924      11270.265      11246.852    
       480   59.939         191.11081      1333.9379     -688865.91     -687531.97      11401.19       875643.49      11418.03       11400.408      11385.132    
       500   62.456158      214.66548      1498.3476     -688987.16     -687488.82      10691.15       875643.49      10727.36       10679.626      10666.466    
       520   64.968786      222.83293      1555.3557     -688999.9      -687444.54      10645.522      875643.49      10678.069      10640.753      10617.745    
       540   67.484728      213.92543      1493.1821     -688894.52     -687401.34      11366.704      875643.49      11372.976      11380.747      11346.39     
       560   70.005987      212.24976      1481.4861     -688839.77     -687358.29      11800.133      875643.49      11793.169      11818.15       11789.081    
       580   72.52606       220.65627      1540.1628     -688854.34     -687314.18      11749.131      875643.49      11757.9        11751.774      11737.72     
       600   75.045343      223.59582      1560.6806     -688830.35     -687269.67      11851.384      875643.49      11886.257      11841.271      11826.622    
       620   77.566476      222.27739      1551.4781     -688776.93     -687225.45      12173.327      875643.49      12219.575      12165.67       12134.736    
       640   80.088421      229.52858      1602.0908     -688782.84     -687180.75      12260.355      875643.49      12294.471      12268.288      12218.307    
       660   82.607811      240.92866      1681.6624     -688817.01     -687135.35      12182.745      875643.49      12200.342      12206.984      12140.909    
       680   85.135851      242.0426       1689.4377     -688779.96     -687090.52      12402.607      875643.49      12419.251      12426.36       12362.21     
       700   87.661886      235.2508       1642.0314     -688688.55     -687046.51      12899.371      875643.49      12924.366      12909.181      12864.567    
       720   90.187631      235.16783      1641.4523     -688643.62     -687002.17      13235.112      875643.49      13258.757      13234.252      13212.326    
       740   92.713933      244.69197      1707.93       -688664.85     -686956.92      13247.659      875643.49      13259.4        13247.237      13236.341    
       760   95.239678      253.50154      1769.4201     -688681.1      -686911.68      13172.797      875643.49      13171.37       13176.335      13170.686    
       780   97.766707      256.42121      1789.7992     -688657.24     -686867.44      13249.35       875643.49      13240.726      13260.25       13247.074    
       800   100.29918      257.53548      1797.5766     -688621.55     -686823.97      13509.273      875643.49      13505.761      13532.334      13489.724    
       820   102.83081      258.55945      1804.7239     -688585.53     -686780.81      13900.511      875643.49      13901.931      13926.779      13872.824    
       840   105.36314      258.32083      1803.0583     -688540.9      -686737.85      14256.292      875643.49      14253.654      14269.281      14245.94     
       860   107.90069      260.74878      1820.0052     -688514.86     -686694.85      14339.933      875643.49      14338.322      14336.814      14344.662    
       880   110.43007      269.34066      1879.9759     -688531.81     -686651.83      14207.063      875643.49      14209.68       14205.936      14205.572    
       900   112.95987      277.78238      1938.8984     -688548.84     -686609.94      14233.795      875643.49      14231.113      14255.098      14215.173    
       920   115.50096      277.81327      1939.114      -688509.48     -686570.37      14595.225      875643.49      14587.224      14625.437      14573.014    
       940   118.03292      273.40297      1908.3305     -688440.49     -686532.16      14983.313      875643.49      14981.501      14989.048      14979.389    
       960   120.56718      274.67595      1917.2158     -688410.69     -686493.48      15104.674      875643.49      15113.559      15081.303      15119.161    
       980   123.10183      281.71891      1966.375      -688420.83     -686454.46      15112.102      875643.49      15120.723      15090.261      15125.323    
      1000   125.63617      286.47704      1999.5864     -688416.43     -686416.85      15252.401      875643.49      15247.262      15260.21       15249.733    
Loop time of 125.636 on 48 procs for 1000 steps with 54000 atoms

Performance: 0.688 ns/day, 34.899 hours/ns, 7.959 timesteps/s
99.5% CPU use with 48 MPI tasks x 1 OpenMP threads

MPI task timing breakdown:
Section |  min time  |  avg time  |  max time  |%varavg| %total
---------------------------------------------------------------
Pair    | 121.27     | 123.63     | 125.17     |   8.0 | 98.40
Neigh   | 0          | 0          | 0          |   0.0 |  0.00
Comm    | 0.25605    | 1.7534     | 4.2449     |  69.7 |  1.40
Output  | 0.0036709  | 0.0038359  | 0.0049566  |   0.3 |  0.00
Modify  | 0.086731   | 0.22456    | 0.56714    |  28.7 |  0.18
Other   |            | 0.02896    |            |       |  0.02

Nlocal:           1125 ave        1130 max        1120 min
Histogram: 24 0 0 0 0 0 0 0 0 24
Nghost:           3051 ave        3056 max        3046 min
Histogram: 24 0 0 0 0 0 0 0 0 24
Neighs:              0 ave           0 max           0 min
Histogram: 48 0 0 0 0 0 0 0 0 0
FullNghs:        99000 ave       99440 max       98560 min
Histogram: 24 0 0 0 0 0 0 0 0 24

Total # of neighbors = 4752000
Ave neighs/atom = 88
Neighbor list builds = 0
Dangerous builds = 0


--------------------------------------------------------------------------

                               FLOPs Report

--------------------------------------------------------------------------
         alloc:     0.0000 GFlops,       0.0002 secs,       0.0000 GFLOP/s
         setup:     0.0000 GFlops,       8.3050 secs,       0.0000 GFLOP/s
   fnn->interp:    60.1920 GFlops,      41.2833 secs,       1.4580 GFLOP/s
             P:   126.7200 GFlops,      10.5359 secs,      12.0275 GFLOP/s
             Q:     7.9200 GFlops,       2.0491 secs,       3.8651 GFLOP/s
             G:     0.0360 GFlops,       0.2838 secs,       0.1268 GFLOP/s
   nn->compute:   223.6354 GFlops,      11.1914 secs,      19.9827 GFLOP/s
          dEdP:     7.9920 GFlops,       5.7880 secs,       1.3808 GFLOP/s
            UV:   253.4400 GFlops,      28.7216 secs,       8.8240 GFLOP/s
            F1:     6.6330 GFlops,       8.0203 secs,       0.8270 GFLOP/s
            F2:     4.2570 GFlops,       6.0797 secs,       0.7002 GFLOP/s
        forces:     1.1880 GFlops,       0.8422 secs,       1.4107 GFLOP/s
--------------------------------------------------------------------------
       Overall:   692.0134 GFlops,     123.1006 secs,       5.6215 GFLOP/s
--------------------------------------------------------------------------

Total wall time: 0:02:06
