LAMMPS (4 May 2022)
  using 1 OpenMP thread(s) per MPI task
variable                    T equal 300
variable                    R equal 984523

units		                metal
dimension                   3
boundary	                p p p
atom_style	                atomic

lattice                     bcc 3.189
Lattice spacing in x,y,z = 3.189 3.189 3.189
region                      box block 0 30 0 30 0 30
create_box                  1 box
Created orthogonal box = (0 0 0) to (95.67 95.67 95.67)
  3 by 4 by 4 MPI processor grid
create_atoms                1 box
Created 54000 atoms
  using lattice units in orthogonal box = (0 0 0) to (95.67 95.67 95.67)
  create_atoms CPU = 0.006 seconds

pair_style	                tensormd
pair_coeff	                * * ../../../W_k32_snapshot.npz W interp 0.1 1
Use interpolation: dr = 0.1000, algo = batch

mass                        1 183.8

neighbor                    1.0 bin
neigh_modify                every 1 delay 0 check yes

thermo                      20
thermo_style                custom step cpu temp ke pe etotal press vol pxx pyy pzz

velocity                    all create $T $R dist gaussian
velocity                    all create 300 $R dist gaussian
velocity                    all create 300 984523 dist gaussian
fix                         1 all nvt temp $T $T 0.1
fix                         1 all nvt temp 300 $T 0.1
fix                         1 all nvt temp 300 300 0.1
# dump                        1 all custom 1 dump.fnn id type x y z fx fy fz

run                         1000
Neighbor list info ...
  update every 1 steps, delay 0 steps, check yes
  max neighbors/atom: 2000, page size: 100000
  master list distance cutoff = 7
  ghost atom cutoff = 7
  binsize = 3.5, bins = 28 28 28
  1 neighbor lists, perpetual/occasional/extra = 1 0 0
  (1) pair tensormd, perpetual
      attributes: full, newton on
      pair build: full/bin/atomonly
      stencil: full/bin/3d
      bin: standard
Per MPI rank memory allocation (min/avg/max) = 133.5 | 134.1 | 134.7 Mbytes
   Step          CPU            Temp          KinEng         PotEng         TotEng         Press          Volume          Pxx            Pyy            Pzz      
         0   0              300            2093.9756     -690609.5      -688515.52     -3839.5997      875643.49     -3828.6077     -3852.6757     -3837.5157    
        20   2.1475637      201.22801      1404.5552     -689915.88     -688511.32      2978.8309      875643.49      2991.3787      2971.6893      2973.4248    
        40   4.2909484      55.46482       387.13993     -688886.28     -688499.14      12282.938      875643.49      12300.722      12275.774      12272.32     
        60   6.4397198      55.569908      387.87344     -688880.11     -688492.24      11801.161      875643.49      11827.349      11789.481      11786.653    
        80   8.5880242      161.1159       1124.5759     -689597.23     -688472.65      5538.2328      875643.49      5562.0506      5508.9296      5543.7183    
       100   10.732905      212.00356      1479.7676     -689920.34     -688440.57      2845.0097      875643.49      2856.4418      2835.4522      2843.1351    
       120   12.880064      180.0077       1256.4391     -689665.21     -688408.78      5700.474       875643.49      5692.1085      5703.7362      5705.5771    
       140   15.02807       148.50131      1036.5271     -689416.26     -688379.73      8108.5071      875643.49      8110.5316      8113.8185      8101.1712    
       160   17.179506      145.89258      1018.3183     -689369.56     -688351.24      8052.8808      875643.49      8040.6398      8057.9614      8060.0414    
       180   19.323528      143.95944      1004.8252     -689326.69     -688321.86      8340.3841      875643.49      8338.629       8333.9724      8348.5509    
       200   21.47236       150.40614      1049.8226     -689341.52     -688291.7       8626.3585      875643.49      8613.3524      8646.8708      8618.8524    
       220   23.618313      184.36106      1286.8252     -689544.54     -688257.71      6988.3718      875643.49      6995.7105      6996.2075      6973.1973    
       240   25.762988      204.3186       1426.1272     -689645.87     -688219.74      5846.6691      875643.49      5871.4693      5838.9548      5829.5832    
       260   27.906674      172.33245      1202.8665     -689386.07     -688183.21      8063.4342      875643.49      8081.1128      8062.2966      8046.8932    
       280   30.053523      137.99688      963.207       -689114.19     -688150.98      10631.956      875643.49      10644.296      10626.989      10624.582    
       300   32.199787      160.65895      1121.3864     -689239.81     -688118.43      9804.3047      875643.49      9803.2709      9803.3318      9806.3115    
       320   34.343516      204.6968       1428.767      -689508.07     -688079.3       7485.0105      875643.49      7486.4334      7495.5986      7472.9995    
       340   36.490294      202.92854      1416.4247     -689454.81     -688038.39      7867.9361      875643.49      7865.4618      7865.6243      7872.7223    
       360   38.639219      172.49735      1204.0175     -689204.33     -688000.31      9983.2986      875643.49      9969.9725      10000.072      9979.8512    
       380   40.785185      172.83372      1206.3653     -689169.61     -687963.25      10299.843      875643.49      10326.615      10292.86       10280.053    
       400   42.930666      198.22405      1383.5877     -689306.58     -687922.99      9267.4654      875643.49      9280.7056      9265.791       9255.8996    
       420   45.07574       202.55381      1413.8091     -689294.83     -687881.02      9540.0569      875643.49      9545.5489      9553.0792      9521.5427    
       440   47.222548      188.70997      1317.1802     -689157.51     -687840.33      10735.733      875643.49      10747.66       10728.86       10730.679    
       460   49.377055      192.59329      1344.2855     -689143.96     -687799.67      10764.665      875643.49      10763.239      10777.559      10753.195    
       480   51.52433       210.96672      1472.5305     -689229.34     -687756.81      10011.804      875643.49      10053.453      10003.45       9978.51      
       500   53.676112      212.77183      1485.13       -689198.38     -687713.25      10305.789      875643.49      10318.509      10317.314      10281.545    
       520   55.822952      201.35822      1405.464      -689076.24     -687670.77      11518.812      875643.49      11512.673      11532.486      11511.276    
       540   57.969345      204.14644      1424.9255     -689053.09     -687628.16      11849.921      875643.49      11837.329      11852.386      11860.049    
       560   60.113842      219.43889      1531.6656     -689115.51     -687583.85      11360.148      875643.49      11374.937      11344.733      11360.773    
       580   62.262226      223.92142      1562.9533     -689101.99     -687539.03      11365.432      875643.49      11410.203      11337.75       11348.343    
       600   64.408026      217.45648      1517.8285     -689012.83     -687495         12065.338      875643.49      12097.826      12043.959      12054.227    
       620   66.555716      218.79072      1527.1414     -688977.98     -687450.84      12465.299      875643.49      12469.517      12480.023      12446.357    
       640   68.70537       229.95016      1605.0334     -689010.63     -687405.6       12389.892      875643.49      12395.059      12406.788      12367.827    
       660   70.852039      235.75153      1645.5265     -689005.64     -687360.12      12424.008      875643.49      12451.529      12423.797      12396.697    
       680   72.998024      232.48071      1622.6964     -688938.02     -687315.33      12889.4        875643.49      12915.713      12881.289      12871.197    
       700   75.143335      231.4041       1615.1818     -688885.8      -687270.62      13346.955      875643.49      13385.012      13332.747      13323.105    
       720   77.288178      238.36715      1663.7833     -688889.03     -687225.24      13454.062      875643.49      13464.836      13465.749      13431.6      
       740   79.432566      246.2683       1718.9327     -688898.54     -687179.61      13411.033      875643.49      13405.715      13427.445      13399.94     
       760   81.577873      249.08357      1738.5831     -688873.14     -687134.56      13518.699      875643.49      13527.118      13516.326      13512.653    
       780   83.723695      249.43778      1741.0554     -688831.13     -687090.07      14000.84       875643.49      14029.641      13993.189      13979.69     
       800   85.871138      250.92907      1751.4645     -688797.14     -687045.68      14412.356      875643.49      14415.452      14414.005      14407.612    
       820   88.019919      253.30736      1768.0648     -688769.36     -687001.29      14608.255      875643.49      14609.47       14614.699      14600.596    
       840   90.164754      257.62215      1798.1816     -688755.2      -686957.01      14584.728      875643.49      14574.971      14595.32       14583.893    
       860   92.312985      264.74263      1847.882      -688760.93     -686913.05      14665.852      875643.49      14690.028      14683.649      14623.88     
       880   94.458801      269.71596      1882.5954     -688752.69     -686870.09      14877.741      875643.49      14905.767      14901.181      14826.273    
       900   96.604353      268.14034      1871.5977     -688700.15     -686828.55      15333.986      875643.49      15361.031      15326.64       15314.286    
       920   98.751459      265.57729      1853.7078     -688641.18     -686787.47      15667.652      875643.49      15681.09       15638.855      15683.011    
       940   100.8981       269.8919       1883.8235     -688629.7      -686745.88      15787.166      875643.49      15779.944      15793.26       15788.296    
       960   103.04574      278.91279      1946.7885     -688651.23     -686704.44      15714.456      875643.49      15705.303      15751.386      15686.678    
       980   105.19187      282.68789      1973.1384     -688638.09     -686664.95      15886.682      875643.49      15906.7        15911.125      15842.222    
      1000   107.34177      280.56428      1958.3159     -688585.9      -686627.59      16199.705      875643.49      16241.26       16205.71       16152.146    
Loop time of 107.342 on 48 procs for 1000 steps with 54000 atoms

Performance: 0.805 ns/day, 29.817 hours/ns, 9.316 timesteps/s
99.3% CPU use with 48 MPI tasks x 1 OpenMP threads

MPI task timing breakdown:
Section |  min time  |  avg time  |  max time  |%varavg| %total
---------------------------------------------------------------
Pair    | 104.28     | 105.83     | 106.92     |   5.7 | 98.60
Neigh   | 0          | 0          | 0          |   0.0 |  0.00
Comm    | 0.3071     | 1.2933     | 2.952      |  51.1 |  1.20
Output  | 0.0034262  | 0.0035742  | 0.0049142  |   0.3 |  0.00
Modify  | 0.07762    | 0.18404    | 0.38042    |  24.6 |  0.17
Other   |            | 0.02705    |            |       |  0.03

Nlocal:           1125 ave        1130 max        1120 min
Histogram: 24 0 0 0 0 0 0 0 0 24
Nghost:           3051 ave        3056 max        3046 min
Histogram: 24 0 0 0 0 0 0 0 0 24
Neighs:              0 ave           0 max           0 min
Histogram: 48 0 0 0 0 0 0 0 0 0
FullNghs:        99000 ave       99440 max       98560 min
Histogram: 24 0 0 0 0 0 0 0 0 24

Total # of neighbors = 4752000
Ave neighs/atom = 88
Neighbor list builds = 0
Dangerous builds = 0


--------------------------------------------------------------------------

                               FLOPs Report

--------------------------------------------------------------------------
         alloc:     0.0000 GFlops,       0.0002 secs,       0.0000 GFLOP/s
         setup:     0.0000 GFlops,       8.4025 secs,       0.0000 GFLOP/s
   fnn->interp:    60.1920 GFlops,      22.1175 secs,       2.7215 GFLOP/s
             P:   126.7200 GFlops,      11.1847 secs,      11.3297 GFLOP/s
             Q:     7.9200 GFlops,       1.9961 secs,       3.9678 GFLOP/s
             G:     0.0360 GFlops,       0.3455 secs,       0.1042 GFLOP/s
   nn->compute:   223.6354 GFlops,      11.2797 secs,      19.8264 GFLOP/s
          dEdP:     7.9920 GFlops,       6.2014 secs,       1.2887 GFLOP/s
            UV:   253.4400 GFlops,      28.6393 secs,       8.8494 GFLOP/s
            F1:     6.6330 GFlops,       8.2211 secs,       0.8068 GFLOP/s
            F2:     4.2570 GFlops,       5.9330 secs,       0.7175 GFLOP/s
        forces:     1.1880 GFlops,       0.8611 secs,       1.3797 GFLOP/s
--------------------------------------------------------------------------
       Overall:   692.0134 GFlops,     105.1820 secs,       6.5792 GFLOP/s
--------------------------------------------------------------------------

Total wall time: 0:01:47
