ITEM: TIMESTEP
20
ITEM: NUMBER OF ATOMS
8192
ITEM: BOX BOUNDS pp pp pp
0.0000000000000000e+00 5.1024000000000001e+01
0.0000000000000000e+00 5.1024000000000001e+01
0.0000000000000000e+00 5.1024000000000001e+01
ITEM: ATOMS id type x y z fx fy fz
145 1     0.01324168005490     3.19754090299613     3.22029237668984    -0.30925349145467    -0.15209147374157    -0.20301568288684
2 1     1.62055679985850     1.61229236292954     1.59383088370509    -0.32421293660512    -0.14733146540346    -0.22213248774403
131 1     3.19350053791745     0.01007555377245     3.18716331327160     0.11585784971515    -0.04726568185384    -0.21361264025972
147 1     3.17959399866195     3.17866009187470     3.19502487576819     0.32724154039298     0.12698152696273    -0.34412654563917
4 1     4.81414883642282     1.58283532692864     1.59419385280824    -0.16216922167118     0.35371823586973    -0.01011321494959
149 1     6.35388334853870     3.19164989224387     3.19504996081574     0.47832978118311    -0.00000275820743    -0.24748708561991
5 1     6.41788763073548     0.00495761396092     0.03771388250469    -0.59593327081659    -0.02440356298590    -0.57430823589387
6 1     8.02653892598872     1.59486010465684     1.62991587667467    -0.88236236350146     0.06417637380202    -0.41581048945081
151 1     9.59616261556207     3.19584635698202     3.15162747983140    -0.56845110745261     0.02978389734545     0.59395997170962
23 1     9.58145826610903     3.19662375965477     0.03240162017121     0.09861668114898    -0.01687843545079    -0.37361292993640
8 1    11.16712193974031     1.59430735541224     1.62525525743159     0.07327255775775    -0.07453198053737    -0.76229111411872
137 1    12.77233055927973     0.01796728443745     3.17365498047514    -0.40124392411739    -0.27767815489346     0.35818384490113
153 1    12.76365381922664     3.20999207080724     3.20109775033680    -0.04663195895031    -0.46217150194414    -0.15581013160554
9 1    12.73023455659547     0.00342783117869     0.00162013344484     0.11385532067663     0.00209518096702    -0.22599863140802
10 1    14.31781144311311     1.58820696565328     1.57911386549613     0.56038526053140     0.15293379862674     0.09064200787779
155 1    15.94775403650879     3.16417942364370     3.15271188187059    -0.14823290971346     0.19991703054959     0.49755563078042
12 1    17.54827601015645     1.59447885465438     1.61320690851534    -0.21105661381200    -0.24383888241601    -0.56099290540567
157 1    19.13771132911229     3.19772788287631     3.11445644922049     0.04954811224970    -0.41102242392824     1.11083773682206
14 1    20.72444275650633     1.57118824618140     1.60431043967591     0.19212105633231     0.39823254706770    -0.06507098646510
16 1    23.94760389131696     1.57014106538576     1.57534362886117    -0.48102404039775     0.45925462345058     0.52424319434112
4241 1    25.49609916215883     3.18774868326504     3.21602150115687     0.24908942799752     0.02068086063719    -0.23989446226988
143 1    22.33940858054657     0.00763343501649     3.18528825919220    -0.40154025580257     0.12303896339513     0.14266826572868
159 1    22.30902025885466     3.17893313518552     3.21282722525740     0.12283778855990     0.15077711871266    -0.48820021663113
33 1     0.02677534616723     6.35678043643825     0.04015791036799    -0.42851668254099     0.35396599993089    -0.65204738501564
18 1     1.56398200953021     4.80546506332604     1.62362930518168     0.52636239977349    -0.40598463134666    -0.06564080664231
35 1     3.20513011892741     6.31475127594344     0.04783526387532    -0.20852806622631     1.31454510660666    -0.59610528576927
163 1     3.19238254921130     6.35237336384293     3.19737661489311    -0.13221044696431     0.56379721907266     0.08683047213744
20 1     4.76827140499132     4.83855438321183     1.59078642127916     0.31418715334963    -1.19036654075593     0.17781768207965
37 1     6.39072804938239     6.37829618599061     0.02425564945352    -0.14000541326547     0.08555968309316    -0.42641755051488
165 1     6.36237375613830     6.37040206499375     3.18064335739398     0.40991665951409     0.13928752206013     0.30779300681184
22 1     7.96700863032678     4.80225639239785     1.57897421184302     0.07650386262468    -0.40699867448899     0.32381290126857
39 1     9.58011664467806     6.39429742923391     0.01564778542373     0.01197534173939    -0.16332247605111    -0.31211965119994
167 1     9.57216340007459     6.38760155772912     3.22356574484653    -0.11539711997224    -0.17980180084728    -0.40497240797215
24 1    11.17242722983731     4.77836151518724     1.60552192848593    -0.11418353021455     0.13436592100257    -0.20963669158727
41 1    12.76336905864863     6.34511714035790     0.00830395751238    -0.12728678998546     0.50783495442346    -0.10711017173830
169 1    12.75069254940749     6.33248582167491     3.22866133304722    -0.03295196197339     0.72788020418897    -0.55020330771877
26 1    14.32952559799167     4.79644278252163     1.57616595824681     0.34729316272145    -0.22552946910791     0.24305909751661
43 1    15.95592207884287     6.37869523028427     0.05024582155017    -0.15667517435266     0.09873568544408    -0.83264295342852
171 1    15.94977420156908     6.39118033164928     3.19117527128699    -0.09319299529876    -0.40235687247959     0.11139354688820
28 1    17.53604031263880     4.75319303088050     1.61815612170575    -0.05663790658866     0.54422086009038    -0.65878841814186
173 1    19.11888484951713     6.35863618901442     3.16004782159148     0.28170337828122     0.39203663922845     0.42711090361326
30 1    20.72923158955124     4.79721114593925     1.60983482040643     0.18283063482504    -0.21441534506996    -0.38551896630708
32 1    23.90432761604067     4.77144738517349     1.57943820534537     0.21956640423084     0.14963504512838     0.32443960904223
47 1    22.34199650461759     6.38026376794765     0.02265731509633    -0.06007083284372    -0.10258958326356    -0.39294760790840
175 1    22.30661853196622     6.41658183951701     3.19418811042063     0.24360495651718    -0.81379287865784    -0.05637256796206
177 1     0.01923548274861     9.55966053670323     3.18135318938892    -0.21127383711064     0.01481473541261     0.17893254881486
34 1     1.58848208133924     7.99368353954991     1.61071624032610     0.30861906468206    -0.40886838016619    -0.22597266249780
51 1     3.17166987805886     9.56391201412364     0.02388264442043     0.37212565507191    -0.12815418182100    -0.16787941399421
179 1     3.20805829229991     9.59753843250173     3.20968787460528    -0.23835894224056    -0.60000842661298    -0.29604145519695
36 1     4.79800497898735     7.99251008285618     1.61905584798885    -0.28354520640996    -0.14696827753881    -0.39252472169892
53 1     6.38199187029529     9.59624767077781     0.04585705674233    -0.34742557289986    -0.72685874956889    -0.92025510312100
181 1     6.38429479036494     9.56344683851007     3.14835033507600     0.06030490915281     0.03248994375744     0.78266073791964
38 1     8.00660286473825     7.93958423551141     1.59285200975349    -0.52811094657839     0.39635992980066     0.09988888759383
55 1     9.53603496849857     9.61584605850982     0.00209973849291     0.71331037318221    -1.06095417572602    -0.19323782611913
183 1     9.54792980304357     9.53934891054923     3.16885451956035     0.49000051460739     0.36503469334644     0.49562389994484
40 1    11.14963169812470     7.95173159621648     1.61531306814017     0.40444535792415     0.24800696425646    -0.18821261575384
185 1    12.81153697987823     9.56590144317973     3.18830373017793    -1.03291811038836    -0.03380168637497     0.14286641977210
42 1    14.35362611223117     7.98665787123167     1.62393370091986    -0.04191006872851    -0.43489745349884    -0.40897881278673
59 1    15.96081893177884     9.56169406451833     0.02288472099806    -0.34725636106862     0.08431447255396    -0.33632543367528
187 1    15.96628681687482     9.54213900300585     3.21273303881044     0.05411905682212     0.33630921551455    -0.29519440186706
44 1    17.55231040061952     7.96724869566667     1.58875638425973     0.04916065491987    -0.00162427637520     0.19586565354862
61 1    19.12124833886978     9.55794373408731     0.02293062842446     0.16198767522488     0.37527727512150    -0.33306731228208
189 1    19.16348461394397     9.60720833345941     3.22142860233071    -0.21659075593887    -0.68658235831046    -0.52555941235541
46 1    20.74825787870057     7.97161909836404     1.55175473334365    -0.38763412645963     0.17688780389881     0.71637428371597
48 1    23.92112596204227     7.97982441864859     1.59424483406795    -0.06590774891684    -0.15013183054476    -0.16463268288473
4145 1    25.48450259955824     9.57209396025877     0.00737789220893     0.24630320656157    -0.18771108819650     0.03307303227386
4273 1    25.48336788210737     9.57276655516825     3.21612342650557     0.38173783303045     0.08221683322067    -0.50622309036046
191 1    22.33060697504765     9.52908628074484     3.17801705291996    -0.32729182624513     0.81135503834620     0.03029894465891
193 1     0.00889659853520    12.72090115634790     3.16128366349280    -0.41955824349173     0.68684051124265     0.39653241092458
50 1     1.57632047162799    11.13389027557037     1.60273999427418     0.26048959784245     0.47437242449381    -0.38954752838145
66 1     1.58590798289748    14.34462280727811     1.59088440430125     0.18273971930648    -0.12603106040708     0.16817319591815
67 1     3.18101861562405    12.78107540089534     0.02167072323030    -0.03407673323742    -0.41558931743692    -0.20014559564009
195 1     3.17112878061482    12.76013087735372     3.19866202758555     0.31054947067930     0.12848562756775    -0.26863803454229
52 1     4.77206244054162    11.16879815326448     1.58681811806034     0.11345004099730     0.09304813368448     0.21457646282943
68 1     4.81959369305071    14.35746755513718     1.59089886703225    -0.51356206280093    -0.07123033144246     0.10995797138277
197 1     6.35235483846249    12.74135541652162     3.18705392106585     0.53767142390098     0.23149140797252    -0.01031985501309
54 1     7.99935899448208    11.11474595487110     1.56459051680527    -0.57998144198022     0.96859888188656     1.02686304570933
70 1     7.97581034227244    14.40593945984019     1.56653412742917     0.07533628951940    -1.11313496503138     0.57905971831720
71 1     9.57578056741750    12.75420539327969     0.03127507016607    -0.34632143647046     0.35493392222676    -0.64377020929189
199 1     9.54077312156844    12.76324197128550     3.16133211210911     0.16852321695007    -0.02820434245067     0.54116315596591
56 1    11.14436178496912    11.15530975871411     1.59930097267096     0.27425317492240    -0.15976077504606     0.18028565840336
72 1    11.14652286711272    14.34216023173716     1.56396598234309     0.17161114470290     0.26052360854921     0.65842615449460
73 1    12.73723791866368    12.73030267336534     0.01046656881905     0.42750482055621     0.32637188732059    -0.28012706676094
201 1    12.75361346882103    12.79107749010269     3.12828030447195     0.00270938064265    -0.63643896740720     1.15342706841045
58 1    14.33165235211610    11.12382400183882     1.63341242882525     0.42503514186163     0.56585688528616    -0.64890020728906
74 1    14.34826536765716    14.33231053859423     1.59122306766734    -0.08983536725686     0.30955016100702    -0.07898739926665
75 1    15.94632342636971    12.74963254700909     0.01865224768808    -0.20319840642976    -0.00607852885354    -0.39944578710026
203 1    15.97873809342090    12.76361161381574     3.17335913303143    -0.44929311343969    -0.43630776632768     0.33704662042909
60 1    17.55475418783682    11.14992170166263     1.59186885089245    -0.22986706678790     0.11473346792734     0.05935196072918
76 1    17.52546751615555    14.34151021661143     1.63505830130134     0.32687311929721     0.10343889574841    -0.62454278274359
205 1    19.16211195565911    12.77445982477860     3.19302367161246    -0.28253516798335    -0.16149946625170     0.19352257602575
62 1    20.72278414750148    11.19462230287279     1.61708094913761     0.08015537455968    -0.65797573156692    -0.29491409500822
78 1    20.71899210433791    14.30879898231514     1.58787243667955    -0.09226906284784     0.92323098113030     0.10703441779483
80 1    23.90079566556132    14.32970558226854     1.54163540468317     0.29628271756896     0.33931641973731     0.97153741644331
64 1    23.89511462432481    11.15103557932872     1.62344642181073     0.18551577701473     0.07554669001146    -0.34394358015530
4161 1    25.49251108143751    12.72767350447086     0.02314128136730     0.21917190856388     0.27283318314363    -0.26500981441954
207 1    22.35752979005585    12.78633663493180     3.15771200115073    -0.33284379806825    -0.62775013119961     0.65615045926299
209 1     0.05033335798688    15.94718904055597     3.20259903733550    -0.65480222915218    -0.05480654520483    -0.00639184447072
82 1     1.58225470699992    17.51141219224085     1.57582686871054     0.21255536633976     0.49475349709269     0.27564523263480
211 1     3.20786003625442    15.92578531167135     3.15914342042140    -0.04111123353887     0.22606502127582     0.62391513385161
84 1     4.75642371442659    17.55083882341370     1.59884112767882     0.29989968777987    -0.17905739505890    -0.14914758816820
85 1     6.40801338718619    15.95145898441264     0.00584504579743    -0.61281227696318     0.04478194193216    -0.22041689604844
213 1     6.40486874399025    15.97084316809736     3.16926636574435    -0.43054029618749    -0.41965581808958     0.29058022318591
86 1     7.94283179776849    17.51216748431113     1.61388487636769     0.66110621746385     0.95417439310300    -0.42972776420807
87 1     9.57349976010259    15.95400738354921     0.01534177168630    -0.14506979932081     0.24306945513295    -0.32826559853070
215 1     9.59624064559173    15.96371543362277     3.19895558661375    -0.29780680676711    -0.25901278545452    -0.20850978485697
88 1    11.17860381828311    17.55667352882523     1.59189287900580    -0.42121750124890    -0.01511859376408     0.08793814587683
89 1    12.71169209907616    15.94748488571595     0.01193945963064     0.76633374985849    -0.10926560244589    -0.20907264072405
217 1    12.76164140696338    15.96389777511009     3.19577432812460    -0.05172405356719    -0.37391130700703    -0.08490968660201
90 1    14.33101736757446    17.56163354017190     1.59395903037690     0.40135723518026    -0.47853729135515    -0.06575431752392
91 1    15.93764873335554    15.93653474722863     0.04134436697965    -0.23275092599496     0.18001012674331    -0.51355031506466
219 1    15.93946948218230    15.90502929581157     3.20196805953589    -0.07532592601316     0.67702747645438     0.12809974098022
92 1    17.53060841514629    17.52031004172964     1.61007259989831    -0.14828714461345     0.10587238933899    -0.22120394847987
221 1    19.12018753003439    15.96156097188029     3.21824629802159     0.27325487222050    -0.52186938871964    -0.38000003037344
94 1    20.70627048844699    17.53174224886215     1.58611958843962     0.38452067639947    -0.31154294909290     0.16063662640586
96 1    23.95067686093723    17.54196914653519     1.60524535304763    -0.47034337013586    -0.29459312936342    -0.10547703180924
4305 1    25.49399453752941    15.92951858646072     3.17442232441909     0.30118674776855     0.13392800410073     0.06430286077881
223 1    22.32385469489169    15.91787822415333     3.17070091686121    -0.12259289098323     0.29441266145232     0.20560027147712
98 1     1.59259178965066    20.72836135674253     1.59334654618822     0.11324746875598    -0.03664064442617    -0.10954717064631
227 1     3.17763323837880    19.14163141676553     3.20182996541615    -0.09297333462702    -0.23354373627066    -0.30258414190579
100 1     4.79885042033661    20.71122066328921     1.59710618754658    -0.33840786712891     0.28944078354714    -0.37017359708518
101 1     6.40534358169883    19.14697708836688     0.00212474689400    -0.17293466033816    -0.04006542026566    -0.05578842817383
229 1     6.32755059918531    19.13308663114695     3.16018941412380     0.77043492062923     0.09744123429194     0.36588817550290
102 1     7.95063564753613    20.74463008281371     1.59229766229019     0.30208232429715    -0.27664747959070    -0.01531341748163
231 1     9.53621098583675    19.17272133829397     3.17808771383379     0.41083187692763    -0.46295030874769     0.13480947850685
104 1    11.18504383361085    20.73938173328483     1.57639535387688    -0.11522547930787    -0.19955912364978     0.36893060548063
233 1    12.79910477150493    19.12749798118828     3.18683434054546    -0.88285099452812     0.25580178538907    -0.03045838586388
106 1    14.37839602717922    20.73550359205127     1.60232813578164    -0.25882235782351    -0.19153121365650    -0.17713626808658
235 1    15.92855955731782    19.13669302811920     3.19970798774764     0.44963116450295    -0.39015162834234    -0.24592364372171
108 1    17.57059320527322    20.68804476119092     1.57408788506251    -0.44492783131938     0.35655207963196     0.28944284142983
237 1    19.12628699317983    19.11988322895120     3.14448631438075     0.02570494558218     0.22853689580913     0.73794813201663
110 1    20.71829814310170    20.71890679735078     1.60699487914993     0.23700882836191     0.01396991045021    -0.09795917960025
112 1    23.92105859219187    20.70990671595787     1.58483359065223    -0.30831659233857     0.43184849045909     0.10662270295980
4321 1    25.51142596004583    19.11724599452328     3.18428091960322     0.12295308456577     0.11926203073467     0.09619523893747
111 1    22.31892760522543    19.11957955079660     0.03455482913638     0.18933126026260     0.36446646185886    -0.52863102814240
239 1    22.30224519892715    19.12839942788015     3.17078738795365     0.21501497258489    -0.20277663686826     0.20734389493607
241 1     0.01776379872839    22.34720356527686     3.15645752154287    -0.23082929844453    -0.26089056333840     0.46303498526704
114 1     1.59698361338529    23.95052039995391     1.57415852677091    -0.09882341093626    -0.61978715620774     0.13130941957520
2179 1     3.21739332418753    25.48175506054561     3.19377678446667    -0.17927512260471     0.40620966620348     0.00577180077712
2051 1     3.17747487050275    25.48803281575476     0.01978278136540     0.03539121591468     0.34875459938706    -0.46889293520652
115 1     3.22489472584486    22.31751454432601     0.00304501326833    -0.55122696471084    -0.08296999072642    -0.17417246814969
243 1     3.18221352803552    22.29953022207388     3.15791209115504     0.07034500786049     0.20908156868168     0.41111498609667
116 1     4.78473064120873    23.90817960473802     1.61452263991540     0.18649650712077     0.15045165938975    -0.40463466471667
245 1     6.33456911696499    22.33745713524110     3.23053799174516     0.73152481842298    -0.35303747684799    -0.69468929320024
118 1     8.01013825288007    23.88469235442207     1.58998775253688    -0.77772855988872     0.52408622218751    -0.04927215178357
2055 1     9.61360930979766    25.49535929230215     0.00739756639813    -0.90476526328492     0.19423172332728    -0.24137052746228
247 1     9.59795517789092    22.31252823967347     3.18640534787038    -0.47482078087951     0.14848869825687     0.12224129572038
120 1    11.13256275445244    23.89251918748108     1.56989409258062     0.77267013395990     0.28617531016103     0.29524680718153
2185 1    12.73828365797740    25.49746353727682     3.19497683539291     0.18176273406243     0.16679379356497     0.00932126983412
121 1    12.77767657662739    22.30048367846858     0.00080738375299    -0.37825021298647     0.46552453862649    -0.10416495470651
249 1    12.77076810928178    22.30863784806265     3.19699834419078    -0.31019590146446     0.23634438329910    -0.09679900285532
122 1    14.34626657950828    23.87772852567374     1.62144821781604    -0.02389164981973     0.54538989969070    -0.41321741041959
2187 1    15.92418707643306    25.50803459982010     3.20316741595814     0.26971604234102    -0.08594317374887    -0.07684337684991
123 1    15.97691611545876    22.28483278563283     0.01155318204195    -0.28919399191820     0.59881502633879     0.00131435766926
251 1    15.90927926648742    22.32391844458191     3.20484227696090     0.72732742491180    -0.00985528521037     0.00153222134235
124 1    17.55643485942217    23.90161313800632     1.64283221033028    -0.35211734475846     0.32396260626441    -0.55496278011099
125 1    19.14663362650029    22.30923547788645     0.05206460563430    -0.44771118976073    -0.02290476575013    -0.76087440576098
253 1    19.13320573009326    22.35348222650314     3.18831243035235    -0.11743294201316    -0.54540861998945     0.40235548201140
126 1    20.72135925699144    23.90571093477987     1.54027264410525     0.01031046744151     0.31290867388795     1.03326457921897
128 1    23.89415088147201    23.94546895740014     1.61012756077201     0.08924387505508    -0.37529678947473    -0.23172494239313
6145 1    25.48716601326129    25.50610700453293     0.00770161168365     0.37279183424527     0.27378837476355     0.01108178558015
4209 1    25.48952204031807    22.35532954322948     0.00774380596246     0.19751688394927    -0.37245600071231    -0.22833125776512
2191 1    22.28818413338499    25.50646066132215     3.16725675315381     0.60141346233648    -0.17928261357525     0.32962589343017
127 1    22.26381183780327    22.34826303257970     0.04103296212215     0.89845778623339    -0.60319581148717    -0.63412269159824
255 1    22.32564598703884    22.30776657776764     3.20616869671020    -0.04518009652515     0.17138289352934    -0.23424565980029
257 1     0.03529714153906     0.00743353867772     6.37991627599558    -0.48505503925820    -0.19676410979122    -0.23431006328417
130 1     1.61612004001014     1.59910494682881     4.75814708516663    -0.34148666429673    -0.19488035962563     0.27806765496204
258 1     1.61128029726807     1.60708677232410     7.93730971690323     0.07393138789869    -0.12514395214705     0.44891007497156
275 1     3.19014035001078     3.18575680852174     6.34865607627694     0.08067142228262     0.03520191309387     0.57176010021123
132 1     4.80060305424334     1.58086976500616     4.79172151847844    -0.07469808406802     0.31854565372769    -0.18667593143470
260 1     4.78198435127107     1.63982970954273     7.96528931020029     0.00972559954705    -0.62113354337832    -0.02896338748202
261 1     6.40279558832152     0.02226160620440     6.37530623500133    -0.42907366916269    -0.23277897306082     0.10155755781271
277 1     6.38982627734647     3.19892512609690     6.35897411897380     0.09126940142863     0.14119433049287     0.26854590478890
134 1     7.99269922404332     1.62251295479902     4.79467375497164    -0.30637749184634    -0.26705836669011    -0.20196579827677
262 1     7.97991040121683     1.61664832905918     7.99676095695022    -0.19912522465998    -0.11580465006179    -0.35930246744811
279 1     9.59977599197618     3.17668100930333     6.37017339439810    -0.56624848350338     0.24179478580487     0.19748473530407
136 1    11.13541295780570     1.64348201855030     4.76055099176903     0.46452440542468    -1.01792635245065     0.40664341873907
264 1    11.13251528599972     1.62211810214422     7.98194423503983     0.47955097974424    -0.70064441182529    -0.25542148607011
281 1    12.77943797964359     3.15984304039688     6.41509162550465    -0.23399365128660     0.38529140399767    -0.56600754796648
138 1    14.31857217232486     1.58576514465428     4.76765761179432     0.49681595156267     0.07937778315105     0.32981947085702
266 1    14.38339704238032     1.61844662771922     7.98366058874429    -0.55791938238394    -0.49077070963060    -0.28619807812948
283 1    15.96165242783366     3.21638689258503     6.37159449225089    -0.18062980699789    -0.49446983995322    -0.12336416441266
140 1    17.53420282873799     1.57293393945882     4.76291566712830    -0.04879056387404     0.22295041971104     0.37914173316935
268 1    17.51140506897794     1.58249653763414     7.99721080592240     0.52533087199733     0.15419783910807    -0.53865280265066
285 1    19.11413956207642     3.18819135246904     6.39386311895785     0.27195529533602    -0.07681372213983    -0.51737111363931
142 1    20.73032778853295     1.60481682232797     4.82236158955488    -0.24650788238494    -0.12984647068717    -0.55200583274465
270 1    20.74763870868117     1.57377944284334     7.96259056614613    -0.33489355398509     0.22083475388008     0.16459548239396
272 1    23.91973227557084     1.55989331267225     7.96996945285903     0.08622573220356     0.40289271652735     0.08513790304145
144 1    23.90273739252320     1.58818985149283     4.81210501973931     0.40789557110687     0.04495941046915    -0.56393872380020
4369 1    25.50427934367118     3.19739109942830     6.40145108438745     0.35311630732098    -0.18963723903913    -0.28205677709601
271 1    22.34209092199242     0.00034515284874     6.38610396154824    -0.55711860047497    -0.06213753678479     0.18969037077530
287 1    22.33998631764133     3.21408199482739     6.34977469257301    -0.37045301664348    -0.26443818491383     0.80018121671810
289 1     0.00022809508940     6.34402449830854     6.40975808267398    -0.06299468078190     0.50779181655306    -0.48819314038130
146 1     1.62197167210007     4.76605135349186     4.80063234851343    -0.48217145299977     0.15644722218079    -0.17741528336790
274 1     1.59290320274700     4.81386255669170     7.98826540302375     0.20975666129221    -0.65435391305623    -0.19512815529171
291 1     3.16789195102563     6.34638573684214     6.37529063874167     0.55512621456179     0.48600086864872    -0.08710709434214
148 1     4.79039469423517     4.78633238695826     4.78870472485861     0.13845671971033    -0.12586531062279    -0.07845155381277
276 1     4.78957361451723     4.80899115466443     7.96675048433802     0.00334124020691    -0.37675914855947     0.08049012081851
293 1     6.39106183495774     6.40556942237870     6.38802401915102    -0.19675919777090    -0.40239923207536    -0.31096554873629
150 1     8.00328920462860     4.79192989078580     4.75185587499463    -0.60515611054360    -0.05814617665384     0.35170518890539
278 1     8.00107958999352     4.80319521679948     7.96338247928228    -0.32520551707119    -0.33810661648809    -0.00823474544707
295 1     9.55555391719633     6.36830826660681     6.38068891586458     0.29211353558484     0.16154685869757     0.12382953115611
152 1    11.11833003723699     4.74976610516037     4.77267440344262     0.80566826556535     0.63334585807568     0.39595101017036
280 1    11.16313566382310     4.76634833955183     7.96975821587405     0.09512708462568     0.47665168049508    -0.05797722756135
297 1    12.78099804769863     6.39065663852043     6.36437035692463    -0.49784493888129    -0.43142046165962     0.34977424088958
154 1    14.32582882867961     4.76427938308041     4.76809680920642     0.47009039880533     0.10198110731832     0.28539308924331
282 1    14.35555837188441     4.76269146144975     7.98174231461742     0.04394924925504     0.47846161620383    -0.21821289266971
299 1    15.93764519522650     6.38681240524779     6.37582018835816     0.13648084713880    -0.17092373686841     0.02292929748314
156 1    17.53538346804885     4.78019007816858     4.77166602806290    -0.10204156712009    -0.16809113870401     0.10786534304079
284 1    17.53906070762621     4.81271395680547     7.97448245294611    -0.13150583585322    -0.34283999814379     0.06419982886247
301 1    19.11483854590013     6.37682275688103     6.37314082620320     0.37546253647712    -0.03892492649210    -0.02218474364666
158 1    20.71701589253081     4.78229087711207     4.78801287172498    -0.00180411734982     0.00886711761818    -0.05037004093791
286 1    20.71409959256039     4.79402932949036     7.97637331432559     0.35767041569734    -0.17546097633877    -0.03730469215414
288 1    23.96739902670204     4.76964159089913     7.97505046156028    -0.90272833139242     0.12787260013764     0.06595346388789
160 1    23.88346224678588     4.77805620562242     4.79778870549827     0.54246082358299     0.38533976495987    -0.33473413675405
303 1    22.33345763723705     6.39991444461046     6.39120029753943    -0.18570319805504    -0.47586037369263     0.05455129200828
162 1     1.59542834823051     7.95217633008894     4.76748763560919     0.03712350629136     0.34588728378626     0.26631250839332
290 1     1.63231444640578     7.93616054328044     7.93751254917789    -0.48833004686208     0.60676955793444     0.34301576685645
307 1     3.19095137696516     9.56735142025382     6.33747024292399    -0.19940831179825    -0.23932551210736     0.55513970714268
164 1     4.80840021877400     7.95242302462626     4.77692448789809    -0.43131977848761     0.23629398749443     0.05584180847259
292 1     4.80828631747711     7.97010593542525     7.96109509848645    -0.39223602068514     0.17840069245313     0.14357769990821
309 1     6.34436290448674     9.60225662794988     6.37076572615238     0.60238493085558    -0.53328737344955     0.19137556830382
166 1     7.94161221774516     7.98768738864888     4.79221524643288     0.44981322785816    -0.10626319051310    -0.24932468866470
294 1     7.96294806330275     7.97724840784972     7.94487996626495     0.25882043603314     0.26431954117601     0.40350000209963
311 1     9.57064933292623     9.57819340313129     6.37413578338080     0.00260684320763    -0.16997318292814     0.07150885228702