ITEM: TIMESTEP
0
ITEM: NUMBER OF ATOMS
8192
ITEM: BOX BOUNDS pp pp pp
0.0000000000000000e+00 5.1024000000000001e+01
0.0000000000000000e+00 5.1024000000000001e+01
0.0000000000000000e+00 5.1024000000000001e+01
ITEM: ATOMS id type x y z fx fy fz
1 1     0.00000000000000     0.00000000000000     0.00000000000000     0.00000000000001     0.00000000000002     0.00000000000002
2 1     1.59450000000000     1.59450000000000     1.59450000000000     0.00000000000002     0.00000000000003     0.00000000000003
3 1     3.18900000000000     0.00000000000000     0.00000000000000    -0.00000000000001     0.00000000000001     0.00000000000002
17 1     0.00000000000000     3.18900000000000     0.00000000000000     0.00000000000002    -0.00000000000001     0.00000000000002
19 1     3.18900000000000     3.18900000000000     0.00000000000000    -0.00000000000001    -0.00000000000000     0.00000000000003
129 1     0.00000000000000     0.00000000000000     3.18900000000000     0.00000000000002     0.00000000000002    -0.00000000000001
131 1     3.18900000000000     0.00000000000000     3.18900000000000    -0.00000000000001     0.00000000000002    -0.00000000000000
145 1     0.00000000000000     3.18900000000000     3.18900000000000     0.00000000000002    -0.00000000000001    -0.00000000000001
147 1     3.18900000000000     3.18900000000000     3.18900000000000    -0.00000000000001    -0.00000000000001    -0.00000000000001
4 1     4.78350000000000     1.59450000000000     1.59450000000000    -0.00000000000000     0.00000000000003     0.00000000000003
5 1     6.37800000000000     0.00000000000000     0.00000000000000     0.00000000000000     0.00000000000001     0.00000000000002
21 1     6.37800000000000     3.18900000000000     0.00000000000000     0.00000000000000    -0.00000000000000     0.00000000000002
133 1     6.37800000000000     0.00000000000000     3.18900000000000     0.00000000000000     0.00000000000002    -0.00000000000001
149 1     6.37800000000000     3.18900000000000     3.18900000000000     0.00000000000000    -0.00000000000001    -0.00000000000001
6 1     7.97250000000000     1.59450000000000     1.59450000000000    -0.00000000000000     0.00000000000003     0.00000000000003
7 1     9.56700000000000     0.00000000000000     0.00000000000000    -0.00000000000000     0.00000000000001     0.00000000000002
23 1     9.56700000000000     3.18900000000000     0.00000000000000    -0.00000000000000    -0.00000000000001     0.00000000000002
135 1     9.56700000000000     0.00000000000000     3.18900000000000    -0.00000000000000     0.00000000000002    -0.00000000000001
151 1     9.56700000000000     3.18900000000000     3.18900000000000     0.00000000000000    -0.00000000000001    -0.00000000000001
8 1    11.16150000000000     1.59450000000000     1.59450000000000     0.00000000000000     0.00000000000002     0.00000000000003
9 1    12.75600000000000     0.00000000000000     0.00000000000000    -0.00000000000000     0.00000000000001     0.00000000000002
10 1    14.35050000000000     1.59450000000000     1.59450000000000    -0.00000000000000     0.00000000000003     0.00000000000003
25 1    12.75600000000000     3.18900000000000     0.00000000000000    -0.00000000000000    -0.00000000000000     0.00000000000003
137 1    12.75600000000000     0.00000000000000     3.18900000000000     0.00000000000000     0.00000000000002    -0.00000000000000
153 1    12.75600000000000     3.18900000000000     3.18900000000000     0.00000000000000    -0.00000000000001    -0.00000000000001
11 1    15.94500000000000     0.00000000000000     0.00000000000000    -0.00000000000000     0.00000000000001     0.00000000000002
12 1    17.53950000000000     1.59450000000000     1.59450000000000    -0.00000000000000     0.00000000000003     0.00000000000003
27 1    15.94500000000000     3.18900000000000     0.00000000000000     0.00000000000000    -0.00000000000001     0.00000000000003
139 1    15.94500000000000     0.00000000000000     3.18900000000000     0.00000000000000     0.00000000000002    -0.00000000000001
155 1    15.94500000000000     3.18900000000000     3.18900000000000    -0.00000000000000    -0.00000000000001    -0.00000000000000
13 1    19.13400000000000     0.00000000000000     0.00000000000000     0.00000000000000     0.00000000000001     0.00000000000002
14 1    20.72850000000000     1.59450000000000     1.59450000000000     0.00000000000000     0.00000000000003     0.00000000000003
29 1    19.13400000000000     3.18900000000000     0.00000000000000     0.00000000000000    -0.00000000000001     0.00000000000003
141 1    19.13400000000000     0.00000000000000     3.18900000000000     0.00000000000000     0.00000000000002    -0.00000000000001
157 1    19.13400000000000     3.18900000000000     3.18900000000000     0.00000000000000    -0.00000000000001    -0.00000000000000
15 1    22.32300000000000     0.00000000000000     0.00000000000000     0.00000000000000     0.00000000000001     0.00000000000002
16 1    23.91750000000000     1.59450000000000     1.59450000000000     0.00000000000000     0.00000000000003     0.00000000000003
31 1    22.32300000000000     3.18900000000000     0.00000000000000     0.00000000000000    -0.00000000000001     0.00000000000003
143 1    22.32300000000000     0.00000000000000     3.18900000000000     0.00000000000000     0.00000000000002    -0.00000000000001
159 1    22.32300000000000     3.18900000000000     3.18900000000000    -0.00000000000000    -0.00000000000001    -0.00000000000000
18 1     1.59450000000000     4.78350000000000     1.59450000000000     0.00000000000003    -0.00000000000000     0.00000000000003
33 1     0.00000000000000     6.37800000000000     0.00000000000000     0.00000000000002     0.00000000000000     0.00000000000002
35 1     3.18900000000000     6.37800000000000     0.00000000000000    -0.00000000000001     0.00000000000000     0.00000000000002
161 1     0.00000000000000     6.37800000000000     3.18900000000000     0.00000000000002     0.00000000000000    -0.00000000000001
163 1     3.18900000000000     6.37800000000000     3.18900000000000    -0.00000000000001     0.00000000000000    -0.00000000000001
20 1     4.78350000000000     4.78350000000000     1.59450000000000    -0.00000000000000     0.00000000000000     0.00000000000003
37 1     6.37800000000000     6.37800000000000     0.00000000000000     0.00000000000000     0.00000000000000     0.00000000000003
165 1     6.37800000000000     6.37800000000000     3.18900000000000     0.00000000000000     0.00000000000000    -0.00000000000000
22 1     7.97250000000000     4.78350000000000     1.59450000000000    -0.00000000000000     0.00000000000000     0.00000000000002
39 1     9.56700000000000     6.37800000000000     0.00000000000000    -0.00000000000000     0.00000000000000     0.00000000000002
167 1     9.56700000000000     6.37800000000000     3.18900000000000     0.00000000000000     0.00000000000000    -0.00000000000001
24 1    11.16150000000000     4.78350000000000     1.59450000000000     0.00000000000000     0.00000000000000     0.00000000000002
26 1    14.35050000000000     4.78350000000000     1.59450000000000    -0.00000000000000     0.00000000000000     0.00000000000002
41 1    12.75600000000000     6.37800000000000     0.00000000000000    -0.00000000000000    -0.00000000000000     0.00000000000003
169 1    12.75600000000000     6.37800000000000     3.18900000000000     0.00000000000000    -0.00000000000000    -0.00000000000000
28 1    17.53950000000000     4.78350000000000     1.59450000000000     0.00000000000000     0.00000000000000     0.00000000000002
43 1    15.94500000000000     6.37800000000000     0.00000000000000    -0.00000000000000    -0.00000000000000     0.00000000000003
171 1    15.94500000000000     6.37800000000000     3.18900000000000    -0.00000000000000     0.00000000000000    -0.00000000000000
30 1    20.72850000000000     4.78350000000000     1.59450000000000     0.00000000000000     0.00000000000000     0.00000000000003
45 1    19.13400000000000     6.37800000000000     0.00000000000000    -0.00000000000000     0.00000000000000     0.00000000000003
173 1    19.13400000000000     6.37800000000000     3.18900000000000     0.00000000000000     0.00000000000000    -0.00000000000000
32 1    23.91750000000000     4.78350000000000     1.59450000000000     0.00000000000000     0.00000000000000     0.00000000000002
47 1    22.32300000000000     6.37800000000000     0.00000000000000    -0.00000000000000    -0.00000000000000     0.00000000000002
175 1    22.32300000000000     6.37800000000000     3.18900000000000    -0.00000000000000     0.00000000000000    -0.00000000000000
34 1     1.59450000000000     7.97250000000000     1.59450000000000     0.00000000000003    -0.00000000000000     0.00000000000003
49 1     0.00000000000000     9.56700000000000     0.00000000000000     0.00000000000002    -0.00000000000000     0.00000000000002
51 1     3.18900000000000     9.56700000000000     0.00000000000000    -0.00000000000001    -0.00000000000000     0.00000000000002
177 1     0.00000000000000     9.56700000000000     3.18900000000000     0.00000000000002     0.00000000000000    -0.00000000000001
179 1     3.18900000000000     9.56700000000000     3.18900000000000    -0.00000000000000    -0.00000000000000    -0.00000000000001
36 1     4.78350000000000     7.97250000000000     1.59450000000000     0.00000000000000    -0.00000000000000     0.00000000000003
53 1     6.37800000000000     9.56700000000000     0.00000000000000     0.00000000000000     0.00000000000000     0.00000000000003
181 1     6.37800000000000     9.56700000000000     3.18900000000000    -0.00000000000000     0.00000000000000    -0.00000000000001
38 1     7.97250000000000     7.97250000000000     1.59450000000000    -0.00000000000000     0.00000000000000     0.00000000000002
55 1     9.56700000000000     9.56700000000000     0.00000000000000     0.00000000000000    -0.00000000000000     0.00000000000003
183 1     9.56700000000000     9.56700000000000     3.18900000000000     0.00000000000000     0.00000000000000    -0.00000000000000
40 1    11.16150000000000     7.97250000000000     1.59450000000000    -0.00000000000000     0.00000000000000     0.00000000000002
42 1    14.35050000000000     7.97250000000000     1.59450000000000    -0.00000000000000    -0.00000000000000     0.00000000000002
57 1    12.75600000000000     9.56700000000000     0.00000000000000    -0.00000000000000    -0.00000000000000     0.00000000000002
185 1    12.75600000000000     9.56700000000000     3.18900000000000     0.00000000000000    -0.00000000000000    -0.00000000000001
44 1    17.53950000000000     7.97250000000000     1.59450000000000     0.00000000000000    -0.00000000000000     0.00000000000002
59 1    15.94500000000000     9.56700000000000     0.00000000000000    -0.00000000000000    -0.00000000000000     0.00000000000003
187 1    15.94500000000000     9.56700000000000     3.18900000000000     0.00000000000000    -0.00000000000000    -0.00000000000001
46 1    20.72850000000000     7.97250000000000     1.59450000000000    -0.00000000000000    -0.00000000000000     0.00000000000003
61 1    19.13400000000000     9.56700000000000     0.00000000000000     0.00000000000000    -0.00000000000000     0.00000000000003
189 1    19.13400000000000     9.56700000000000     3.18900000000000     0.00000000000000    -0.00000000000000    -0.00000000000001
48 1    23.91750000000000     7.97250000000000     1.59450000000000     0.00000000000000    -0.00000000000000     0.00000000000003
63 1    22.32300000000000     9.56700000000000     0.00000000000000     0.00000000000000    -0.00000000000000     0.00000000000003
191 1    22.32300000000000     9.56700000000000     3.18900000000000    -0.00000000000000    -0.00000000000000    -0.00000000000001
50 1     1.59450000000000    11.16150000000000     1.59450000000000     0.00000000000002     0.00000000000000     0.00000000000003
65 1     0.00000000000000    12.75600000000000     0.00000000000000     0.00000000000002     0.00000000000000     0.00000000000002
66 1     1.59450000000000    14.35050000000000     1.59450000000000     0.00000000000003    -0.00000000000000     0.00000000000003
67 1     3.18900000000000    12.75600000000000     0.00000000000000    -0.00000000000001     0.00000000000000     0.00000000000002
193 1     0.00000000000000    12.75600000000000     3.18900000000000     0.00000000000002    -0.00000000000000    -0.00000000000001
195 1     3.18900000000000    12.75600000000000     3.18900000000000    -0.00000000000001    -0.00000000000000    -0.00000000000001
52 1     4.78350000000000    11.16150000000000     1.59450000000000     0.00000000000000     0.00000000000000     0.00000000000002
68 1     4.78350000000000    14.35050000000000     1.59450000000000    -0.00000000000000     0.00000000000000     0.00000000000002
69 1     6.37800000000000    12.75600000000000     0.00000000000000    -0.00000000000000    -0.00000000000001     0.00000000000003
197 1     6.37800000000000    12.75600000000000     3.18900000000000     0.00000000000000    -0.00000000000000    -0.00000000000001
54 1     7.97250000000000    11.16150000000000     1.59450000000000    -0.00000000000000    -0.00000000000000     0.00000000000002
70 1     7.97250000000000    14.35050000000000     1.59450000000000    -0.00000000000000     0.00000000000000     0.00000000000002
71 1     9.56700000000000    12.75600000000000     0.00000000000000     0.00000000000000    -0.00000000000000     0.00000000000003
199 1     9.56700000000000    12.75600000000000     3.18900000000000     0.00000000000000     0.00000000000000    -0.00000000000001
56 1    11.16150000000000    11.16150000000000     1.59450000000000    -0.00000000000000    -0.00000000000000     0.00000000000002
58 1    14.35050000000000    11.16150000000000     1.59450000000000    -0.00000000000000     0.00000000000000     0.00000000000002
72 1    11.16150000000000    14.35050000000000     1.59450000000000    -0.00000000000000    -0.00000000000000     0.00000000000003
73 1    12.75600000000000    12.75600000000000     0.00000000000000    -0.00000000000000     0.00000000000000     0.00000000000003
74 1    14.35050000000000    14.35050000000000     1.59450000000000    -0.00000000000000    -0.00000000000000     0.00000000000002
201 1    12.75600000000000    12.75600000000000     3.18900000000000    -0.00000000000000     0.00000000000000    -0.00000000000001
60 1    17.53950000000000    11.16150000000000     1.59450000000000     0.00000000000000     0.00000000000000     0.00000000000002
75 1    15.94500000000000    12.75600000000000     0.00000000000000     0.00000000000000     0.00000000000000     0.00000000000003
76 1    17.53950000000000    14.35050000000000     1.59450000000000     0.00000000000000    -0.00000000000000     0.00000000000002
203 1    15.94500000000000    12.75600000000000     3.18900000000000     0.00000000000000     0.00000000000000    -0.00000000000001
62 1    20.72850000000000    11.16150000000000     1.59450000000000    -0.00000000000000     0.00000000000000     0.00000000000002
77 1    19.13400000000000    12.75600000000000     0.00000000000000     0.00000000000000     0.00000000000000     0.00000000000003
78 1    20.72850000000000    14.35050000000000     1.59450000000000    -0.00000000000000    -0.00000000000000     0.00000000000003
205 1    19.13400000000000    12.75600000000000     3.18900000000000     0.00000000000000     0.00000000000000    -0.00000000000001
64 1    23.91750000000000    11.16150000000000     1.59450000000000     0.00000000000000     0.00000000000000     0.00000000000002
79 1    22.32300000000000    12.75600000000000     0.00000000000000     0.00000000000000     0.00000000000000     0.00000000000003
80 1    23.91750000000000    14.35050000000000     1.59450000000000    -0.00000000000000    -0.00000000000000     0.00000000000003
207 1    22.32300000000000    12.75600000000000     3.18900000000000    -0.00000000000000     0.00000000000000    -0.00000000000001
81 1     0.00000000000000    15.94500000000000     0.00000000000000     0.00000000000002     0.00000000000000     0.00000000000002
82 1     1.59450000000000    17.53950000000000     1.59450000000000     0.00000000000003    -0.00000000000000     0.00000000000002
83 1     3.18900000000000    15.94500000000000     0.00000000000000    -0.00000000000001     0.00000000000000     0.00000000000002
209 1     0.00000000000000    15.94500000000000     3.18900000000000     0.00000000000002     0.00000000000000    -0.00000000000000
211 1     3.18900000000000    15.94500000000000     3.18900000000000    -0.00000000000001     0.00000000000000    -0.00000000000001
84 1     4.78350000000000    17.53950000000000     1.59450000000000     0.00000000000000    -0.00000000000000     0.00000000000002
85 1     6.37800000000000    15.94500000000000     0.00000000000000    -0.00000000000000     0.00000000000000     0.00000000000003
213 1     6.37800000000000    15.94500000000000     3.18900000000000     0.00000000000000     0.00000000000000    -0.00000000000001
86 1     7.97250000000000    17.53950000000000     1.59450000000000    -0.00000000000000     0.00000000000000     0.00000000000003
87 1     9.56700000000000    15.94500000000000     0.00000000000000    -0.00000000000000     0.00000000000000     0.00000000000003
215 1     9.56700000000000    15.94500000000000     3.18900000000000     0.00000000000000    -0.00000000000000    -0.00000000000001
88 1    11.16150000000000    17.53950000000000     1.59450000000000    -0.00000000000000     0.00000000000000     0.00000000000003
89 1    12.75600000000000    15.94500000000000     0.00000000000000     0.00000000000000     0.00000000000000     0.00000000000003
90 1    14.35050000000000    17.53950000000000     1.59450000000000    -0.00000000000000    -0.00000000000000     0.00000000000003
217 1    12.75600000000000    15.94500000000000     3.18900000000000    -0.00000000000000    -0.00000000000000    -0.00000000000001
91 1    15.94500000000000    15.94500000000000     0.00000000000000    -0.00000000000000     0.00000000000000     0.00000000000003
92 1    17.53950000000000    17.53950000000000     1.59450000000000    -0.00000000000000    -0.00000000000000     0.00000000000003
219 1    15.94500000000000    15.94500000000000     3.18900000000000     0.00000000000000    -0.00000000000000    -0.00000000000001
93 1    19.13400000000000    15.94500000000000     0.00000000000000     0.00000000000000     0.00000000000000     0.00000000000003
94 1    20.72850000000000    17.53950000000000     1.59450000000000     0.00000000000000    -0.00000000000000     0.00000000000003
221 1    19.13400000000000    15.94500000000000     3.18900000000000    -0.00000000000000    -0.00000000000001    -0.00000000000001
95 1    22.32300000000000    15.94500000000000     0.00000000000000     0.00000000000000     0.00000000000000     0.00000000000003
96 1    23.91750000000000    17.53950000000000     1.59450000000000     0.00000000000000    -0.00000000000000     0.00000000000003
223 1    22.32300000000000    15.94500000000000     3.18900000000000    -0.00000000000000    -0.00000000000000    -0.00000000000001
97 1     0.00000000000000    19.13400000000000     0.00000000000000     0.00000000000002     0.00000000000000     0.00000000000002
98 1     1.59450000000000    20.72850000000000     1.59450000000000     0.00000000000003    -0.00000000000000     0.00000000000003
99 1     3.18900000000000    19.13400000000000     0.00000000000000    -0.00000000000001     0.00000000000000     0.00000000000002
225 1     0.00000000000000    19.13400000000000     3.18900000000000     0.00000000000002     0.00000000000000     0.00000000000000
227 1     3.18900000000000    19.13400000000000     3.18900000000000    -0.00000000000001    -0.00000000000000    -0.00000000000000
100 1     4.78350000000000    20.72850000000000     1.59450000000000     0.00000000000000    -0.00000000000000     0.00000000000003
101 1     6.37800000000000    19.13400000000000     0.00000000000000    -0.00000000000000    -0.00000000000000     0.00000000000003
229 1     6.37800000000000    19.13400000000000     3.18900000000000     0.00000000000000     0.00000000000000    -0.00000000000001
102 1     7.97250000000000    20.72850000000000     1.59450000000000    -0.00000000000000    -0.00000000000000     0.00000000000003
103 1     9.56700000000000    19.13400000000000     0.00000000000000     0.00000000000000     0.00000000000000     0.00000000000002
231 1     9.56700000000000    19.13400000000000     3.18900000000000    -0.00000000000000    -0.00000000000000    -0.00000000000001
104 1    11.16150000000000    20.72850000000000     1.59450000000000    -0.00000000000000    -0.00000000000000     0.00000000000003
105 1    12.75600000000000    19.13400000000000     0.00000000000000     0.00000000000000     0.00000000000000     0.00000000000003
106 1    14.35050000000000    20.72850000000000     1.59450000000000    -0.00000000000000    -0.00000000000000     0.00000000000003
233 1    12.75600000000000    19.13400000000000     3.18900000000000     0.00000000000000     0.00000000000000    -0.00000000000001
107 1    15.94500000000000    19.13400000000000     0.00000000000000    -0.00000000000000     0.00000000000000     0.00000000000003
108 1    17.53950000000000    20.72850000000000     1.59450000000000    -0.00000000000000    -0.00000000000000     0.00000000000003
235 1    15.94500000000000    19.13400000000000     3.18900000000000    -0.00000000000000    -0.00000000000000    -0.00000000000001
109 1    19.13400000000000    19.13400000000000     0.00000000000000     0.00000000000000     0.00000000000000     0.00000000000002
110 1    20.72850000000000    20.72850000000000     1.59450000000000    -0.00000000000000    -0.00000000000000     0.00000000000003
237 1    19.13400000000000    19.13400000000000     3.18900000000000     0.00000000000000     0.00000000000000    -0.00000000000001
111 1    22.32300000000000    19.13400000000000     0.00000000000000    -0.00000000000000     0.00000000000000     0.00000000000002
112 1    23.91750000000000    20.72850000000000     1.59450000000000     0.00000000000000     0.00000000000000     0.00000000000003
239 1    22.32300000000000    19.13400000000000     3.18900000000000     0.00000000000000    -0.00000000000000    -0.00000000000001
113 1     0.00000000000000    22.32300000000000     0.00000000000000     0.00000000000002     0.00000000000000     0.00000000000002
114 1     1.59450000000000    23.91750000000000     1.59450000000000     0.00000000000003     0.00000000000000     0.00000000000003
115 1     3.18900000000000    22.32300000000000     0.00000000000000    -0.00000000000000     0.00000000000000     0.00000000000002
241 1     0.00000000000000    22.32300000000000     3.18900000000000     0.00000000000002     0.00000000000000    -0.00000000000000
243 1     3.18900000000000    22.32300000000000     3.18900000000000    -0.00000000000001     0.00000000000000    -0.00000000000001
116 1     4.78350000000000    23.91750000000000     1.59450000000000     0.00000000000000     0.00000000000000     0.00000000000003
117 1     6.37800000000000    22.32300000000000     0.00000000000000    -0.00000000000000    -0.00000000000000     0.00000000000003
245 1     6.37800000000000    22.32300000000000     3.18900000000000     0.00000000000000    -0.00000000000000    -0.00000000000001
118 1     7.97250000000000    23.91750000000000     1.59450000000000    -0.00000000000000     0.00000000000000     0.00000000000003
119 1     9.56700000000000    22.32300000000000     0.00000000000000     0.00000000000000    -0.00000000000000     0.00000000000002
247 1     9.56700000000000    22.32300000000000     3.18900000000000    -0.00000000000000     0.00000000000000    -0.00000000000001
120 1    11.16150000000000    23.91750000000000     1.59450000000000    -0.00000000000000     0.00000000000000     0.00000000000003
121 1    12.75600000000000    22.32300000000000     0.00000000000000     0.00000000000000    -0.00000000000000     0.00000000000003
122 1    14.35050000000000    23.91750000000000     1.59450000000000     0.00000000000000    -0.00000000000000     0.00000000000003
249 1    12.75600000000000    22.32300000000000     3.18900000000000    -0.00000000000000     0.00000000000000    -0.00000000000001
123 1    15.94500000000000    22.32300000000000     0.00000000000000    -0.00000000000000    -0.00000000000000     0.00000000000003
124 1    17.53950000000000    23.91750000000000     1.59450000000000     0.00000000000000     0.00000000000000     0.00000000000003
251 1    15.94500000000000    22.32300000000000     3.18900000000000    -0.00000000000000     0.00000000000000    -0.00000000000001
125 1    19.13400000000000    22.32300000000000     0.00000000000000    -0.00000000000000    -0.00000000000000     0.00000000000003
126 1    20.72850000000000    23.91750000000000     1.59450000000000     0.00000000000000     0.00000000000000     0.00000000000003
253 1    19.13400000000000    22.32300000000000     3.18900000000000     0.00000000000000     0.00000000000000    -0.00000000000001
127 1    22.32300000000000    22.32300000000000     0.00000000000000    -0.00000000000000    -0.00000000000000     0.00000000000003
128 1    23.91750000000000    23.91750000000000     1.59450000000000     0.00000000000000     0.00000000000000     0.00000000000003
255 1    22.32300000000000    22.32300000000000     3.18900000000000     0.00000000000000     0.00000000000000    -0.00000000000001
130 1     1.59450000000000     1.59450000000000     4.78350000000000     0.00000000000003     0.00000000000003     0.00000000000000
257 1     0.00000000000000     0.00000000000000     6.37800000000000     0.00000000000002     0.00000000000002     0.00000000000000
258 1     1.59450000000000     1.59450000000000     7.97250000000000     0.00000000000003     0.00000000000003    -0.00000000000000
259 1     3.18900000000000     0.00000000000000     6.37800000000000    -0.00000000000001     0.00000000000002     0.00000000000000
273 1     0.00000000000000     3.18900000000000     6.37800000000000     0.00000000000003    -0.00000000000001     0.00000000000000
275 1     3.18900000000000     3.18900000000000     6.37800000000000    -0.00000000000001    -0.00000000000001     0.00000000000000
132 1     4.78350000000000     1.59450000000000     4.78350000000000    -0.00000000000000     0.00000000000003    -0.00000000000000
260 1     4.78350000000000     1.59450000000000     7.97250000000000    -0.00000000000000     0.00000000000003     0.00000000000000
261 1     6.37800000000000     0.00000000000000     6.37800000000000     0.00000000000000     0.00000000000002     0.00000000000000
277 1     6.37800000000000     3.18900000000000     6.37800000000000    -0.00000000000000    -0.00000000000001     0.00000000000000
134 1     7.97250000000000     1.59450000000000     4.78350000000000    -0.00000000000000     0.00000000000002    -0.00000000000000
262 1     7.97250000000000     1.59450000000000     7.97250000000000    -0.00000000000000     0.00000000000002     0.00000000000000
263 1     9.56700000000000     0.00000000000000     6.37800000000000    -0.00000000000000     0.00000000000002     0.00000000000000
279 1     9.56700000000000     3.18900000000000     6.37800000000000     0.00000000000000    -0.00000000000001     0.00000000000000
136 1    11.16150000000000     1.59450000000000     4.78350000000000     0.00000000000000     0.00000000000002    -0.00000000000000
138 1    14.35050000000000     1.59450000000000     4.78350000000000     0.00000000000000     0.00000000000002    -0.00000000000000
264 1    11.16150000000000     1.59450000000000     7.97250000000000    -0.00000000000000     0.00000000000002     0.00000000000000
265 1    12.75600000000000     0.00000000000000     6.37800000000000     0.00000000000000     0.00000000000003     0.00000000000000
266 1    14.35050000000000     1.59450000000000     7.97250000000000     0.00000000000000     0.00000000000002     0.00000000000000
281 1    12.75600000000000     3.18900000000000     6.37800000000000     0.00000000000000    -0.00000000000001     0.00000000000000
140 1    17.53950000000000     1.59450000000000     4.78350000000000    -0.00000000000000     0.00000000000002    -0.00000000000000
267 1    15.94500000000000     0.00000000000000     6.37800000000000    -0.00000000000000     0.00000000000003     0.00000000000000
268 1    17.53950000000000     1.59450000000000     7.97250000000000     0.00000000000000     0.00000000000002     0.00000000000000
283 1    15.94500000000000     3.18900000000000     6.37800000000000    -0.00000000000000    -0.00000000000001     0.00000000000000
142 1    20.72850000000000     1.59450000000000     4.78350000000000    -0.00000000000000     0.00000000000002    -0.00000000000000
269 1    19.13400000000000     0.00000000000000     6.37800000000000     0.00000000000000     0.00000000000002     0.00000000000000
270 1    20.72850000000000     1.59450000000000     7.97250000000000    -0.00000000000000     0.00000000000002     0.00000000000000
285 1    19.13400000000000     3.18900000000000     6.37800000000000     0.00000000000000    -0.00000000000001     0.00000000000000
144 1    23.91750000000000     1.59450000000000     4.78350000000000     0.00000000000000     0.00000000000003    -0.00000000000000
271 1    22.32300000000000     0.00000000000000     6.37800000000000    -0.00000000000000     0.00000000000002     0.00000000000000
272 1    23.91750000000000     1.59450000000000     7.97250000000000     0.00000000000000     0.00000000000003    -0.00000000000000
287 1    22.32300000000000     3.18900000000000     6.37800000000000     0.00000000000000    -0.00000000000001     0.00000000000000
146 1     1.59450000000000     4.78350000000000     4.78350000000000     0.00000000000003    -0.00000000000000     0.00000000000000
274 1     1.59450000000000     4.78350000000000     7.97250000000000     0.00000000000003    -0.00000000000000    -0.00000000000000