LAMMPS (4 May 2022)
  using 1 OpenMP thread(s) per MPI task
variable                    T equal 300
variable                    R equal 984523

units		                metal
dimension                   3
boundary	                p p p
atom_style	                atomic

lattice                     bcc 3.189
Lattice spacing in x,y,z = 3.189 3.189 3.189
region                      box block 0 16 0 16 0 16
create_box                  1 box
Created orthogonal box = (0 0 0) to (51.024 51.024 51.024)
  2 by 2 by 4 MPI processor grid
create_atoms                1 box
Created 8192 atoms
  using lattice units in orthogonal box = (0 0 0) to (51.024 51.024 51.024)
  create_atoms CPU = 0.002 seconds

pair_style	                tensormd
pair_coeff	                * * ../../../../W_k32_snapshot.npz W

mass                        1 183.8

neighbor                    1.0 bin
neigh_modify                every 1 delay 0 check yes

thermo                      1
thermo_style                custom step cpu temp ke pe etotal press vol pxx pyy pzz

velocity                    all create $T $R dist gaussian
velocity                    all create 300 $R dist gaussian
velocity                    all create 300 984523 dist gaussian
fix                         1 all nvt temp $T $T 0.1
fix                         1 all nvt temp 300 $T 0.1
fix                         1 all nvt temp 300 300 0.1
dump                        1 all custom 20 dump.fnn id type x y z fx fy fz
dump_modify 1 format float "% 20.14f"

run                         40
Neighbor list info ...
  update every 1 steps, delay 0 steps, check yes
  max neighbors/atom: 2000, page size: 100000
  master list distance cutoff = 7
  ghost atom cutoff = 7
  binsize = 3.5, bins = 15 15 15
  1 neighbor lists, perpetual/occasional/extra = 1 0 0
  (1) pair tensormd, perpetual
      attributes: full, newton on
      pair build: full/bin/atomonly
      stencil: full/bin/3d
      bin: standard
Per MPI rank memory allocation (min/avg/max) = 130.8 | 130.8 | 130.8 Mbytes
   Step          CPU            Temp          KinEng         PotEng         TotEng         Press          Volume          Pxx            Pyy            Pzz      
         0   0              300            317.63095     -104733.65     -104416.02      1556.2353      132838.36      1537.8283      1556.9187      1573.959     
         1   0.20804315     299.74704      317.36312     -104733.38     -104416.02      1567.9593      132838.36      1549.5298      1568.6046      1585.7434    
         2   0.4119063      298.98915      316.5607      -104732.58     -104416.02      1603.0744      132838.36      1584.5782      1603.6052      1621.0397    
         3   0.61585455     297.72935      315.22685     -104731.25     -104416.02      1661.414       132838.36      1642.8083      1661.7537      1679.68      
         4   0.82000525     295.9726       313.36687     -104729.39     -104416.02      1742.7039      132838.36      1723.9474      1742.7759      1761.3885    
         5   1.024065       293.72585      310.98807     -104727        -104416.02      1846.5641      132838.36      1827.617       1846.2926      1865.7828    
         6   1.228193       290.99796      308.09986     -104724.11     -104416.01      1972.5114      132838.36      1953.336       1971.8216      1992.3767    
         7   1.4325504      287.79968      304.71362     -104720.72     -104416.01      2119.9626      132838.36      2100.5232      2118.781       2140.5837    
         8   1.6370015      284.14362      300.8427      -104716.84     -104416         2288.2384      132838.36      2268.5015      2286.4936      2309.7203    
         9   1.8414275      280.04418      296.50234     -104712.49     -104415.99      2476.5678      132838.36      2456.5021      2474.1905      2499.0109    
        10   2.0460595      275.51751      291.70963     -104707.68     -104415.97      2684.0929      132838.36      2663.6696      2681.0165      2707.5927    
        11   2.2506095      270.58143      286.48345     -104702.44     -104415.95      2909.8744      132838.36      2889.0671      2906.0354      2934.5208    
        12   2.4554087      265.25534      280.84435     -104696.77     -104415.93      3152.8973      132838.36      3131.6821      3148.2355      3178.7743    
        13   2.660173       259.56018      274.81449     -104690.71     -104415.9       3412.0769      132838.36      3390.4323      3406.536       3439.2624    
        14   2.8651163      253.5183       268.41754     -104684.28     -104415.86      3686.2653      132838.36      3664.1724      3679.7929      3714.8304    
        15   3.0699582      247.15341      261.67858     -104677.49     -104415.81      3974.2575      132838.36      3951.7         3966.8058      4004.2668    
        16   3.2749712      240.4904       254.62399     -104670.38     -104415.76      4274.7988      132838.36      4251.7625      4266.3244      4306.3095    
        17   3.4798043      233.55531      247.28132     -104662.98     -104415.7       4586.5909      132838.36      4563.064       4577.0554      4619.6533    
        18   3.6848179      226.37517      239.6792      -104655.31     -104415.63      4908.2988      132838.36      4884.2717      4897.669       4942.9557    
        19   3.8899036      218.97787      231.84716     -104647.39     -104415.55      5238.5578      132838.36      5214.0231      5226.8056      5274.8448    
        20   4.0995084      211.39206      223.81553     -104639.27     -104415.46      5575.9801      132838.36      5550.9321      5563.083       5613.9252    
        21   4.3064263      203.64698      215.61529     -104630.97     -104415.36      5919.1611      132838.36      5893.596       5905.1022      5958.7852    
        22   4.511533       195.77238      207.27789     -104622.52     -104415.25      6266.6863      132838.36      6240.6019      6251.4542      6308.0027    
        23   4.7168772      187.7983       198.83518     -104613.96     -104415.13      6617.137       132838.36      6590.5327      6600.7262      6660.1521    
        24   4.922156       179.75498      190.31915     -104605.32     -104415         6969.097       132838.36      6941.9733      6951.5076      7013.81      
        25   5.1275517      171.67269      181.76187     -104596.62     -104414.86      7321.1578      132838.36      7293.5165      7302.3957      7367.5611    
        26   5.3329999      163.58163      173.19529     -104587.91     -104414.72      7671.9247      132838.36      7643.7685      7652.0014      7720.0041    
        27   5.5383127      155.51172      164.65112     -104579.22     -104414.57      8020.0219      132838.36      7991.3543      7998.9546      8069.7568    
        28   5.7436538      147.49257      156.16069     -104570.57     -104414.41      8364.0979      132838.36      8334.9232      8341.909       8415.4616    
        29   5.9490997      139.55327      147.7548      -104562.01     -104414.25      8702.8305      132838.36      8673.1534      8679.5477      8755.7902    
        30   6.1544024      131.72238      139.46368     -104553.56     -104414.09      9034.9313      132838.36      9004.7573      9010.5877      9089.4491    
        31   6.3598721      124.02779      131.31689     -104545.25     -104413.93      9359.1514      132838.36      9328.4859      9333.7845      9415.1839    
        32   6.5653842      116.4967       123.3432      -104537.12     -104413.77      9674.2852      132838.36      9643.1341      9647.9373      9731.7841    
        33   6.770981       109.15558      115.57063     -104529.19     -104413.62      9979.1755      132838.36      9947.545       9951.8933      10038.088    
        34   6.9764024      102.03009      108.02639     -104521.5      -104413.47      10272.718      132838.36      10240.615      10244.552      10332.988    
        35   7.1819759      95.145138      100.7368      -104514.06     -104413.33      10553.867      132838.36      10521.297      10524.872      10615.432    
        36   7.3892587      88.524735      93.72732      -104506.92     -104413.19      10821.637      132838.36      10788.607      10791.87       10884.433    
        37   7.5975368      82.191997      87.022408     -104500.09     -104413.07      11075.108      132838.36      11041.626      11044.631      11139.068    
        38   7.8031204      76.169018      80.64546      -104493.59     -104412.95      11313.431      132838.36      11279.504      11282.307      11378.484    
        39   8.0086683      70.476751      74.618659     -104487.46     -104412.84      11535.829      132838.36      11501.463      11504.123      11601.9      
        40   8.2163769      65.134855      68.962821     -104481.7      -104412.74      11741.596      132838.36      11706.802      11709.377      11808.611    
Loop time of 8.2164 on 16 procs for 40 steps with 8192 atoms

Performance: 0.421 ns/day, 57.058 hours/ns, 4.868 timesteps/s
99.7% CPU use with 16 MPI tasks x 1 OpenMP threads

MPI task timing breakdown:
Section |  min time  |  avg time  |  max time  |%varavg| %total
---------------------------------------------------------------
Pair    | 8.1118     | 8.1496     | 8.2015     |   0.9 | 99.19
Neigh   | 0          | 0          | 0          |   0.0 |  0.00
Comm    | 0.007374   | 0.053911   | 0.09607    |  10.7 |  0.66
Output  | 0.005636   | 0.0056849  | 0.0063392  |   0.2 |  0.07
Modify  | 0.00085357 | 0.0062875  | 0.021415   |  11.0 |  0.08
Other   |            | 0.000943   |            |       |  0.01

Nlocal:            512 ave         512 max         512 min
Histogram: 16 0 0 0 0 0 0 0 0 0
Nghost:           2161 ave        2161 max        2161 min
Histogram: 16 0 0 0 0 0 0 0 0 0
Neighs:              0 ave           0 max           0 min
Histogram: 16 0 0 0 0 0 0 0 0 0
FullNghs:        45056 ave       45056 max       45056 min
Histogram: 16 0 0 0 0 0 0 0 0 0

Total # of neighbors = 720896
Ave neighs/atom = 88
Neighbor list builds = 0
Dangerous builds = 0


--------------------------------------------------------------------------

                               FLOPs Report

--------------------------------------------------------------------------
         alloc:     0.0000 GFlops,       0.0000 secs,       0.0000 GFLOP/s
         setup:     0.0000 GFlops,       0.0604 secs,       0.0000 GFLOP/s
        cutoff:     0.0180 GFlops,       0.0927 secs,       0.1945 GFLOP/s
  fnn->forward:    11.5938 GFlops,       6.1141 secs,       1.8962 GFLOP/s
    descriptor:     0.1153 GFlops,       0.1957 secs,       0.5894 GFLOP/s
             P:     2.3069 GFlops,       0.1074 secs,      21.4861 GFLOP/s
             Q:     0.1442 GFlops,       0.0256 secs,       5.6405 GFLOP/s
             G:     0.0007 GFlops,       0.0038 secs,       0.1742 GFLOP/s
   nn->compute:     4.0712 GFlops,       0.1314 secs,      30.9783 GFLOP/s
          dEdP:     0.1455 GFlops,       0.0327 secs,       4.4521 GFLOP/s
            UV:     4.6137 GFlops,       0.2279 secs,      20.2443 GFLOP/s
 fnn->backward:    11.3613 GFlops,       1.0411 secs,      10.9129 GFLOP/s
            F2:     0.0775 GFlops,       0.0955 secs,       0.8116 GFLOP/s
        forces:     0.0216 GFlops,       0.0102 secs,       2.1170 GFLOP/s
--------------------------------------------------------------------------
       Overall:    34.4697 GFlops,       8.1384 secs,       4.2355 GFLOP/s
--------------------------------------------------------------------------

Total wall time: 0:00:08
