LAMMPS (4 May 2022)
  using 1 OpenMP thread(s) per MPI task
variable                    T equal 300
variable                    R equal 984523

units		                metal
dimension                   3
boundary	                p p p
atom_style	                atomic

lattice                     bcc 3.189
Lattice spacing in x,y,z = 3.189 3.189 3.189
region                      box block 0 30 0 30 0 30
create_box                  1 box
Created orthogonal box = (0 0 0) to (95.67 95.67 95.67)
  3 by 4 by 4 MPI processor grid
create_atoms                1 box
Created 54000 atoms
  using lattice units in orthogonal box = (0 0 0) to (95.67 95.67 95.67)
  create_atoms CPU = 0.006 seconds

pair_style	                tensormd
pair_coeff	                * * ../../../W_k32_snapshot.npz W interp 0.005 1
Use interpolation: dr = 0.0050, algo = batch

mass                        1 183.8

neighbor                    1.0 bin
neigh_modify                every 1 delay 0 check yes

thermo                      20
thermo_style                custom step cpu temp ke pe etotal press vol pxx pyy pzz

velocity                    all create $T $R dist gaussian
velocity                    all create 300 $R dist gaussian
velocity                    all create 300 984523 dist gaussian
fix                         1 all nvt temp $T $T 0.1
fix                         1 all nvt temp 300 $T 0.1
fix                         1 all nvt temp 300 300 0.1
# dump                        1 all custom 1 dump.fnn id type x y z fx fy fz

run                         1000
Neighbor list info ...
  update every 1 steps, delay 0 steps, check yes
  max neighbors/atom: 2000, page size: 100000
  master list distance cutoff = 7
  ghost atom cutoff = 7
  binsize = 3.5, bins = 28 28 28
  1 neighbor lists, perpetual/occasional/extra = 1 0 0
  (1) pair tensormd, perpetual
      attributes: full, newton on
      pair build: full/bin/atomonly
      stencil: full/bin/3d
      bin: standard
Per MPI rank memory allocation (min/avg/max) = 134.7 | 135.2 | 135.8 Mbytes
   Step          CPU            Temp          KinEng         PotEng         TotEng         Press          Volume          Pxx            Pyy            Pzz      
         0   0              300            2093.9756     -690382.96     -688288.98      1570.2617      875643.49      1581.2537      1557.1857      1572.3457    
        20   2.1455656      210.82113      1471.5143     -689756.79     -688285.27      5618.0739      875643.49      5633.0651      5607.8643      5613.2925    
        40   4.2861258      63.700244      444.62252     -688717.25     -688272.63      11807.908      875643.49      11830.909      11803.347      11789.466    
        60   6.4315395      46.607405      325.31589     -688591.26     -688265.94      11962.04       875643.49      11983.958      11960.474      11941.689    
        80   8.5692485      149.43359      1043.0343     -689291.43     -688248.4       7295.4572      875643.49      7306.8244      7292.2128      7287.3345    
       100   10.710536      216.62933      1512.0551     -689728.62     -688216.57      4995.4255      875643.49      5002.543       4988.633       4995.1006    
       120   12.853724      192.38027      1342.7986     -689526.77     -688183.97      7035.8924      875643.49      7048.3716      7029.5005      7029.8051    
       140   14.995246      151.21403      1055.4616     -689209.82     -688154.36      9181.2254      875643.49      9195.3561      9176.5182      9171.8019    
       160   17.135767      146.45418      1022.2383     -689148.24     -688126         9120.6117      875643.49      9124.2154      9115.7335      9121.886     
       180   19.283952      151.70073      1058.8587     -689154.92     -688096.06      8773.7146      875643.49      8761.9886      8770.127       8789.0283    
       200   21.425005      150.75594      1052.2642     -689117.52     -688065.26      9218.7855      875643.49      9201.0412      9217.8246      9237.4909    
       220   23.564725      169.75074      1184.8463     -689217.49     -688032.64      8912.5736      875643.49      8903.838       8912.5535      8921.3294    
       240   25.706111      200.97175      1402.7665     -689398.53     -687995.77      7764.7753      875643.49      7771.0961      7765.1587      7758.071     
       260   27.847647      195.10728      1361.8329     -689319.52     -687957.68      8089.4862      875643.49      8103.382       8089.0043      8076.0722    
       280   29.986116      155.31129      1084.0601     -689006.78     -687922.72      10085.643      875643.49      10094.398      10078.95       10083.582    
       300   32.130468      146.55632      1022.9512     -688913.52     -687890.56      10864.154      875643.49      10860.384      10854.9        10877.178    
       320   34.268379      187.8374       1311.0898     -689165.39     -687854.3       9373.5827      875643.49      9360.8314      9371.1777      9388.739     
       340   36.407669      215.43635      1503.7282     -689316.68     -687812.95      8328.692       875643.49      8315.9195      8333.9471      8336.2093    
       360   38.548633      191.67724      1337.8915     -689110.83     -687772.94      9578.8278      875643.49      9576.9025      9582.1498      9577.4311    
       380   40.691568      165.94296      1158.2683     -688894.14     -687735.87      11023.007      875643.49      11034.88       11015.436      11018.706    
       400   42.830874      184.73005      1289.4007     -688987.21     -687697.8       10570.762      875643.49      10587.39       10555.936      10568.96     
       420   44.96879       215.43404      1503.7121     -689159.17     -687655.45      9542.4097      875643.49      9548.3981      9538.7014      9540.1297    
       440   47.108699      210.38345      1468.4594     -689081.29     -687612.83      10013.653      875643.49      10006.315      10026.879      10007.766    
       460   49.250172      187.67527      1309.9581     -688882.33     -687572.37      11257.041      875643.49      11253.984      11270.317      11246.823    
       480   51.396105      191.11141      1333.9421     -688865.91     -687531.97      11401.298      875643.49      11418.2        11400.493      11385.2      
       500   53.53986       214.66606      1498.3516     -688987.16     -687488.81      10691.273      875643.49      10727.452      10679.747      10666.619    
       520   55.680338      222.83306      1555.3566     -688999.9      -687444.54      10645.585      875643.49      10678.116      10640.812      10617.829    
       540   57.819101      213.92547      1493.1823     -688894.52     -687401.34      11366.814      875643.49      11373.078      11380.875      11346.489    
       560   59.958818      212.25007      1481.4882     -688839.77     -687358.28      11800.186      875643.49      11793.251      11818.191      11789.115    
       580   62.098847      220.6566       1540.1651     -688854.34     -687314.17      11749.243      875643.49      11758.019      11751.89       11737.82     
       600   64.239648      223.59598      1560.6818     -688830.35     -687269.67      11851.431      875643.49      11886.322      11841.285      11826.684    
       620   66.382131      222.27763      1551.4797     -688776.93     -687225.45      12173.347      875643.49      12219.603      12165.69       12134.748    
       640   68.522861      229.52904      1602.094      -688782.84     -687180.75      12260.366      875643.49      12294.433      12268.291      12218.373    
       660   70.661825      240.92907      1681.6653     -688817.02     -687135.35      12182.762      875643.49      12200.32       12207.019      12140.949    
       680   72.801789      242.04271      1689.4384     -688779.96     -687090.52      12402.666      875643.49      12419.336      12426.394      12362.268    
       700   74.940906      235.25078      1642.0313     -688688.54     -687046.51      12899.362      875643.49      12924.344      12909.175      12864.568    
       720   77.082219      235.16805      1641.4538     -688643.62     -687002.17      13235.222      875643.49      13258.843      13234.418      13212.405    
       740   79.225992      244.69241      1707.9331     -688664.85     -686956.92      13247.651      875643.49      13259.422      13247.228      13236.303    
       760   81.362638      253.5019       1769.4226     -688681.1      -686911.67      13172.869      875643.49      13171.397      13176.426      13170.784    
       780   83.502699      256.42138      1789.8004     -688657.24     -686867.44      13249.408      875643.49      13240.811      13260.302      13247.11     
       800   85.648227      257.53567      1797.578      -688621.55     -686823.97      13509.367      875643.49      13505.867      13532.409      13489.825    
       820   87.79313       258.55963      1804.7251     -688585.53     -686780.8       13900.638      875643.49      13902.108      13926.896      13872.909    
       840   89.934166      258.32088      1803.0587     -688540.9      -686737.84      14256.319      875643.49      14253.647      14269.349      14245.962    
       860   92.074968      260.74895      1820.0064     -688514.86     -686694.85      14339.826      875643.49      14338.186      14336.723      14344.568    
       880   94.217191      269.34109      1879.9789     -688531.81     -686651.83      14207.1        875643.49      14209.701      14206.003      14205.597    
       900   96.359792      277.78274      1938.9009     -688548.84     -686609.94      14233.779      875643.49      14231.092      14255.095      14215.148    
       920   98.698422      277.81325      1939.1139     -688509.48     -686570.37      14595.282      875643.49      14587.27       14625.503      14573.071    
       940   100.83906      273.40288      1908.3298     -688440.48     -686532.15      14983.365      875643.49      14981.55       14989.104      14979.439    
       960   103.18071      274.67623      1917.2177     -688410.69     -686493.48      15104.756      875643.49      15113.655      15081.368      15119.244    
       980   105.52093      281.71936      1966.3782     -688420.84     -686454.46      15112.105      875643.49      15120.739      15090.282      15125.294    
      1000   107.76047      286.47732      1999.5884     -688416.43     -686416.85      15252.403      875643.49      15247.277      15260.223      15249.709    
Loop time of 107.761 on 48 procs for 1000 steps with 54000 atoms

Performance: 0.802 ns/day, 29.933 hours/ns, 9.280 timesteps/s
99.3% CPU use with 48 MPI tasks x 1 OpenMP threads

MPI task timing breakdown:
Section |  min time  |  avg time  |  max time  |%varavg| %total
---------------------------------------------------------------
Pair    | 103.84     | 106.24     | 106.57     |   6.1 | 98.58
Neigh   | 0          | 0          | 0          |   0.0 |  0.00
Comm    | 0.35184    | 1.3272     | 3.0919     |  53.9 |  1.24
Output  | 0.003284   | 0.0033342  | 0.004702   |   0.3 |  0.00
Modify  | 0.086285   | 0.15873    | 0.27857    |  15.2 |  0.15
Other   |            | 0.02666    |            |       |  0.02

Nlocal:           1125 ave        1130 max        1120 min
Histogram: 24 0 0 0 0 0 0 0 0 24
Nghost:           3051 ave        3056 max        3046 min
Histogram: 24 0 0 0 0 0 0 0 0 24
Neighs:              0 ave           0 max           0 min
Histogram: 48 0 0 0 0 0 0 0 0 0
FullNghs:        99000 ave       99440 max       98560 min
Histogram: 24 0 0 0 0 0 0 0 0 24

Total # of neighbors = 4752000
Ave neighs/atom = 88
Neighbor list builds = 0
Dangerous builds = 0


--------------------------------------------------------------------------

                               FLOPs Report

--------------------------------------------------------------------------
         alloc:     0.0000 GFlops,       0.0002 secs,       0.0000 GFLOP/s
         setup:     0.0000 GFlops,       8.3797 secs,       0.0000 GFLOP/s
   fnn->interp:    60.1920 GFlops,      21.9170 secs,       2.7464 GFLOP/s
             P:   126.7200 GFlops,      11.1603 secs,      11.3545 GFLOP/s
             Q:     7.9200 GFlops,       1.9960 secs,       3.9680 GFLOP/s
             G:     0.0360 GFlops,       0.3451 secs,       0.1043 GFLOP/s
   nn->compute:   223.6354 GFlops,      11.2639 secs,      19.8542 GFLOP/s
          dEdP:     7.9920 GFlops,       6.2118 secs,       1.2866 GFLOP/s
            UV:   253.4400 GFlops,      28.6400 secs,       8.8492 GFLOP/s
            F1:     6.6330 GFlops,       8.1719 secs,       0.8117 GFLOP/s
            F2:     4.2570 GFlops,       5.9685 secs,       0.7132 GFLOP/s
        forces:     1.1880 GFlops,       0.8434 secs,       1.4086 GFLOP/s
--------------------------------------------------------------------------
       Overall:   692.0134 GFlops,     104.8978 secs,       6.5970 GFLOP/s
--------------------------------------------------------------------------

Total wall time: 0:01:47
