LAMMPS (4 May 2022)
  using 1 OpenMP thread(s) per MPI task
variable                    T equal 300
variable                    R equal 984523

units		                metal
dimension                   3
boundary	                p p p
atom_style	                atomic

lattice                     bcc 3.189
Lattice spacing in x,y,z = 3.189 3.189 3.189
region                      box block 0 12 0 12 0 24
create_box                  1 box
Created orthogonal box = (0 0 0) to (38.268 38.268 76.536)
  1 by 2 by 3 MPI processor grid
create_atoms                1 box
Created 6912 atoms
  using lattice units in orthogonal box = (0 0 0) to (38.268 38.268 76.536)
  create_atoms CPU = 0.003 seconds

pair_style	                tensormd
pair_coeff	                * * ../../W_k32_snapshot.npz W interp 0.01 1
Use interpolation: dr = 0.0100, algo = batch

mass                        1 183.8

neighbor                    1.0 bin
neigh_modify                every 5 delay 0 check yes

thermo                      10
thermo_style                custom step cpu temp ke pe etotal press vol pxx pyy pzz

velocity                    all create $T $R dist gaussian
velocity                    all create 300 $R dist gaussian
velocity                    all create 300 984523 dist gaussian
fix                         1 all nvt temp $T $T 0.1
fix                         1 all nvt temp 300 $T 0.1
fix                         1 all nvt temp 300 300 0.1

run                         1000
Neighbor list info ...
  update every 5 steps, delay 0 steps, check yes
  max neighbors/atom: 2000, page size: 100000
  master list distance cutoff = 7
  ghost atom cutoff = 7
  binsize = 3.5, bins = 11 11 22
  1 neighbor lists, perpetual/occasional/extra = 1 0 0
  (1) pair tensormd, perpetual
      attributes: full, newton on
      pair build: full/bin/atomonly
      stencil: full/bin/3d
      bin: standard
Per MPI rank memory allocation (min/avg/max) = 137.7 | 137.7 | 137.7 Mbytes
   Step          CPU            Temp          KinEng         PotEng         TotEng         Press          Volume          Pxx            Pyy            Pzz      
         0   0              300            267.99506     -88369.011     -88101.016      1649.6415      112082.37      1626.8096      1650.1602      1671.9546    
        10   0.50106304     275.42464      246.04147     -88347.019     -88100.977      2696.9817      112082.37      2671.5805      2701.6836      2717.6809    
        20   0.98112966     211.07012      188.5525      -88289.092     -88100.539      5628.9292      112082.37      5597.9975      5644.8765      5643.9136    
        30   1.45964        131.26139      117.25801     -88216.638     -88099.38       9128.404       112082.37      9091.5467      9160.0822      9133.583     
        40   1.9383707      64.863045      57.943252     -88156.137     -88098.194      11855.479      112082.37      11818.055      11897.258      11851.124    
        50   2.4172231      34.335807      30.672755     -88128.262     -88097.589      12886.798      112082.37      12853.374      12928.523      12878.497    
        60   2.8959515      47.19298       42.158284     -88139.167     -88097.009      12037.432      112082.37      12013.481      12066.388      12032.426    
        70   3.3746618      93.10802       83.174964     -88178.999     -88095.824      9858.948       112082.37      9846.9436      9866.6756      9863.2247    
        80   3.853436       150.45636      134.4052      -88228.128     -88093.723      7366.7377      112082.37      7363.8552      7356.7111      7379.6469    
        90   4.3318735      197.10882      176.08063     -88266.937     -88090.857      5579.7548      112082.37      5581.27        5562.9105      5595.0839    
       100   4.813408       219.52141      196.10218     -88283.757     -88087.655      5079.8998      112082.37      5079.673       5068.412       5091.6146    
       110   5.291802       216.28811      193.21381     -88277.688     -88084.474      5807.9985      112082.37      5803.5649      5807.9519      5812.4787    
       120   5.7702199      196.04705      175.13214     -88256.584     -88081.452      7217.255       112082.37      7208.8295      7225.7501      7217.1856    
       130   6.24854        171.79764      153.46973     -88232.066     -88078.596      8618.7275      112082.37      8608.367       8629.8606      8617.955     
       140   6.7272371      154.40156      137.92952     -88213.8       -88075.871      9501.7991      112082.37      9493.1661      9507.1373      9505.0939    
       150   7.2056809      148.21632      132.40414     -88205.597     -88073.193      9721.232       112082.37      9716.2485      9717.2087      9730.2388    
       160   7.6843674      150.72335      134.64371     -88205.101     -88070.457      9487.7209      112082.37      9490.9146      9471.3379      9500.9104    
       170   8.1668949      155.84595      139.21981     -88206.826     -88067.607      9185.1463      112082.37      9196.2052      9161.1383      9198.0952    
       180   8.6455005      158.62546      141.7028      -88206.364     -88064.662      9119.239       112082.37      9134.7089      9094.9941      9128.0139    
       190   9.1241681      158.39108      141.49343     -88203.167     -88061.673      9339.1932      112082.37      9352.2676      9324.4896      9340.8223    
       200   9.602614       158.75575      141.81919     -88200.478     -88058.659      9644.5636      112082.37      9648.0116      9647.5697      9638.1095    
       210   10.081114      164.66182      147.09518     -88202.661     -88055.565      9742.0094      112082.37      9734.1028      9763.5284      9728.397     
       220   10.55967       178.32265      159.29863     -88211.597     -88052.298      9461.0502      112082.37      9445.4293      9494.4746      9443.2467    
       230   11.038048      196.68598      175.70291     -88224.496     -88048.793      8887.6668      112082.37      8873.7489      8921.9399      8867.3116    
       240   11.516496      212.33337      189.68098     -88234.778     -88045.097      8339.5671      112082.37      8337.5787      8362.6171      8318.5055    
       250   11.995171      217.51066      194.30594     -88235.654     -88041.348      8202.4665      112082.37      8219.439       8205.2737      8182.6868    
       260   12.473538      208.78836      186.51416     -88224.211     -88037.697      8688.0785      112082.37      8728.0382      8665.6463      8670.551     
       270   12.954341      189.45807      169.24609     -88203.474     -88034.228      9690.3235      112082.37      9750.4891      9642.5305      9677.951     
       280   13.432954      168.36481      150.40312     -88181.358     -88030.955      10820.795      112082.37      10893.099      10753.814      10815.473    
       290   13.913289      155.84264      139.21686     -88167.035     -88027.818      11613.698      112082.37      11687.068      11539.579      11614.447    
       300   14.391957      158.70551      141.77431     -88166.429     -88024.655      11749.501      112082.37      11812.134      11682.811      11753.559    
       310   14.870532      176.7028       157.85159     -88179.103     -88021.252      11214.033      112082.37      11254.708      11168.276      11219.114    
       320   15.34905       202.37623      180.7861      -88198.278     -88017.492      10309.669      112082.37      10322.305      10293.992      10312.711    
       330   15.827596      224.65769      200.6905      -88214.148     -88013.457      9512.261       112082.37      9499.0304      9525.9057      9511.8469    
       340   16.30635       234.38751      209.38231     -88218.748     -88009.366      9239.7378      112082.37      9213.7836      9272.7317      9232.6981    
       350   16.785002      228.75203      204.34804     -88209.757     -88005.409      9642.9782      112082.37      9624.2203      9676.9632      9627.7512    
       360   17.263604      212.35375      189.69918     -88191.352     -88001.653      10534.464      112082.37      10542.345      10548.644      10512.403    
       370   17.742202      194.60096      173.84032     -88171.898     -87998.058      11511.233      112082.37      11553.842      11490.18       11489.675    
       380   18.220745      184.9509       165.21975     -88159.744     -87994.524      12160.32       112082.37      12231.78       12100.973      12148.207    
       390   18.6993        188.39024      168.29218     -88159.204     -87990.912      12263.794      112082.37      12346.922      12177.193      12267.265    
       400   19.177991      203.27964      181.59313     -88168.682     -87987.088      11882.383      112082.37      11959.373      11786.61       11901.164    
       410   19.656488      222.53088      198.79059     -88181.815     -87983.024      11305.267      112082.37      11363.96       11219.291      11332.549    
       420   20.135073      237.44269      212.11156     -88190.938     -87978.827      10898.324      112082.37      10935.734      10833.305      10925.934    
       430   20.613594      242.12991      216.29873     -88190.962     -87974.664      10916.607      112082.37      10936.142      10878.117      10935.56     
       440   21.092865      236.24572      211.04229     -88181.688     -87970.646      11378.413      112082.37      11389.651      11363.547      11382.04     
       450   21.573208      224.72711      200.75252     -88167.531     -87966.778      12077.649      112082.37      12091.291      12078.385      12063.27     
       460   22.051671      214.89639      191.97057     -88154.958     -87962.987      12705.012      112082.37      12731.615      12710.123      12673.299    
       470   22.530463      212.57508      189.8969      -88149.066     -87959.169      13018.673      112082.37      13063.186      13016.144      12976.688    
       480   23.009214      219.28867      195.89427     -88151.125     -87955.231      12956.204      112082.37      13015.887      12936.202      12916.524    
       490   23.487855      231.9158       207.17429     -88158.309     -87951.135      12649.306      112082.37      12711.573      12609.12       12627.226    
       500   23.968611      244.76253      218.6505      -88165.581     -87946.931      12335.507      112082.37      12385.196      12278.094      12343.23     
       510   24.447178      252.76348      225.79788     -88168.527     -87942.729      12226.152      112082.37      12252.854      12161.683      12263.917    
       520   24.925747      253.98443      226.88857     -88165.513     -87938.625      12396.342      112082.37      12401.047      12336.699      12451.28     
       530   25.404383      250.16859      223.47982     -88158.126     -87934.646      12772.943      112082.37      12765.611      12727.189      12826.028    
       540   25.883064      245.25997      219.09486     -88149.847     -87930.752      13195.402      112082.37      13191.787      13164.886      13229.534    
       550   26.361519      242.94538      217.02721     -88143.898     -87926.87       13509.346      112082.37      13522.29       13492.021      13513.728    
       560   26.840275      244.70526      218.59934     -88141.543     -87922.944      13652.38       112082.37      13691.662      13640.226      13625.251    
       570   27.319107      249.40081      222.79395     -88141.748     -87918.954      13667.518      112082.37      13733.809      13658.575      13610.171    
       580   27.797686      254.39317      227.25371     -88142.182     -87914.928      13662.755      112082.37      13752.006      13655.979      13580.28     
       590   28.276498      257.34477      229.89043     -88140.806     -87910.916      13730.534      112082.37      13832.64       13730.594      13628.367    
       600   28.755122      257.64922      230.16239     -88137.117     -87906.954      13897.023      112082.37      14000.532      13904.532      13786.003    
       610   29.233724      256.72962      229.3409      -88132.386     -87903.045      14115.323      112082.37      14206.747      14128.25       14010.974    
       620   29.712521      257.0724       229.64711     -88128.808     -87899.161      14312.622      112082.37      14383.062      14323.403      14231.402    
       630   30.191172      260.62443      232.8202      -88128.085     -87895.265      14419.77       112082.37      14468.063      14419.691      14371.557    
       640   30.670031      267.56158      239.01727     -88130.363     -87891.346      14418.589      112082.37      14450.997      14404.742      14400.029    
       650   31.148761      276.10932      246.65311     -88134.086     -87887.433      14352.878      112082.37      14376.621      14333.638      14348.376    
       660   31.627457      283.42458      253.18796     -88136.782     -87883.594      14302.526      112082.37      14325.315      14293.759      14288.504    
       670   32.10616       287.01435      256.39475     -88136.297     -87879.902      14350.328      112082.37      14374.989      14369.357      14306.639    
       680   32.584956      285.9823       255.47281     -88131.868     -87876.395      14535.277      112082.37      14563.208      14590.715      14451.907    
       690   33.063703      281.51777      251.48457     -88124.532     -87873.047      14839.337      112082.37      14870.732      14926.177      14721.101    
       700   33.542332      276.38492      246.89931     -88116.685     -87869.786      15178.306      112082.37      15215.691      15275.883      15043.343    
       710   34.021294      273.59631      244.40819     -88110.931     -87866.522      15451.142      112082.37      15495.249      15536.418      15321.758    
       720   34.502732      274.88596      245.56026     -88108.757     -87863.197      15593.491      112082.37      15642.578      15652.009      15485.886    
       730   34.981489      279.85128      249.99587     -88109.795     -87859.799      15608.02       112082.37      15661.495      15636.536      15526.028    
       740   35.460337      286.3298       255.78324     -88112.159     -87856.376      15552.062      112082.37      15610.363      15557.94       15487.882    
       750   35.939098      291.752        260.62698     -88113.633     -87853.006      15503.237      112082.37      15568.696      15499.404      15441.609    
       760   36.418011      294.57808      263.15156     -88112.915     -87849.763      15511.47       112082.37      15578.772      15517.106      15438.534    
       770   36.896843      294.98517      263.51523     -88110.194     -87846.679      15582.189      112082.37      15642.03       15616.322      15488.215    
       780   37.375621      294.49454      263.07694     -88106.819     -87843.742      15685.889      112082.37      15723.634      15764.637      15569.398    
       790   37.854516      294.81439      263.36267     -88104.28      -87840.918      15793.296      112082.37      15795.771      15920.795      15663.322    
       800   38.333319      296.70068      265.04772     -88103.227     -87838.179      15898.264      112082.37      15859.411      16067.595      15767.788    
       810   38.812168      299.59849      267.63639     -88103.165     -87835.529      16017.814      112082.37      15939.169      16213.758      15900.517    
       820   39.290867      302.18108      269.94346     -88102.936     -87832.992      16168.072      112082.37      16065.41       16371.221      16067.584    
       830   39.76962       303.31815      270.95922     -88101.559     -87830.6        16343.561      112082.37      16238.793      16538.653      16253.237    
       840   40.248312      302.84426      270.53588     -88098.899     -87828.363      16516.306      112082.37      16431.332      16692.766      16424.819    
       850   40.7289        301.68478      269.5001      -88095.765     -87826.265      16644.573      112082.37      16592.349      16805          16536.369    
       860   41.207776      301.34753      269.19883     -88093.472     -87824.274      16691.462      112082.37      16670.776      16844.398      16559.211    
       870   41.686469      303.1321       270.79302     -88093.159     -87822.366      16642.189      112082.37      16642.197      16797.203      16487.166    
       880   42.165285      307.39074      274.59733     -88095.151     -87820.554      16520.993      112082.37      16526.463      16677.599      16358.916    
       890   42.643883      313.13809      279.73153     -88098.625     -87818.893      16380.324      112082.37      16371.8        16527.963      16241.207    
       900   43.122523      318.30889      284.3507      -88101.828     -87817.477      16287.054      112082.37      16241.705      16413.311      16206.148    
       910   43.601277      320.68712      286.47521     -88102.877     -87816.402      16302.853      112082.37      16200.564      16403.591      16304.404    
       920   44.080134      319.04693      285.01        -88100.727     -87815.717      16445.291      112082.37      16282.261      16529.718      16523.895    
       930   44.558696      313.83142      280.3509      -88095.744     -87815.393      16677.875      112082.37      16471.439      16761.103      16801.084    
       940   45.037241      307.01834      274.26466     -88089.593     -87815.329      16915.356      112082.37      16703.674      17010.066      17032.327    
       950   45.515955      301.29902      269.1555      -88084.55      -87815.394      17074.66       112082.37      16898.595      17190.49       17134.896    
       960   45.994946      298.95012      267.05718     -88082.546     -87815.489      17109.114      112082.37      16997.997      17254.02       17075.325    
       970   46.473649      300.87828      268.77964     -88084.351     -87815.572      17012.231      112082.37      16975.505      17191.648      16869.541    
       980   46.952402      306.22341      273.55453     -88089.232     -87815.678      16822.094      112082.37      16850.034      17029.386      16586.861    
       990   47.431286      312.66982      279.31322     -88095.216     -87815.903      16605.33       112082.37      16673.135      16814.581      16328.273    
      1000   47.91004       317.42953      283.56515     -88099.932     -87816.367      16440.97       112082.37      16514.295      16614.605      16194.009    
Loop time of 47.9101 on 6 procs for 1000 steps with 6912 atoms

Performance: 1.803 ns/day, 13.308 hours/ns, 20.872 timesteps/s
99.4% CPU use with 6 MPI tasks x 1 OpenMP threads

MPI task timing breakdown:
Section |  min time  |  avg time  |  max time  |%varavg| %total
---------------------------------------------------------------
Pair    | 47.413     | 47.599     | 47.765     |   1.5 | 99.35
Neigh   | 0          | 0          | 0          |   0.0 |  0.00
Comm    | 0.10924    | 0.27004    | 0.45524    |  19.7 |  0.56
Output  | 0.0039247  | 0.0042623  | 0.0059089  |   1.1 |  0.01
Modify  | 0.026296   | 0.031915   | 0.036363   |   2.2 |  0.07
Other   |            | 0.004909   |            |       |  0.01

Nlocal:           1152 ave        1152 max        1152 min
Histogram: 6 0 0 0 0 0 0 0 0 0
Nghost:           3199 ave        3199 max        3199 min
Histogram: 6 0 0 0 0 0 0 0 0 0
Neighs:              0 ave           0 max           0 min
Histogram: 6 0 0 0 0 0 0 0 0 0
FullNghs:       101376 ave      101376 max      101376 min
Histogram: 6 0 0 0 0 0 0 0 0 0

Total # of neighbors = 608256
Ave neighs/atom = 88
Neighbor list builds = 0
Dangerous builds = 0


--------------------------------------------------------------------------

                               FLOPs Report

--------------------------------------------------------------------------
         alloc:     0.0000 GFlops,       0.0001 secs,       0.0000 GFLOP/s
         setup:     0.0000 GFlops,       2.6564 secs,       0.0000 GFLOP/s
   fnn->interp:    61.6366 GFlops,      10.8668 secs,       5.6720 GFLOP/s
             P:   129.7613 GFlops,       5.1804 secs,      25.0487 GFLOP/s
             Q:     8.1101 GFlops,       1.2947 secs,       6.2639 GFLOP/s
             G:     0.0369 GFlops,       0.2558 secs,       0.1441 GFLOP/s
   nn->compute:   229.0026 GFlops,       7.2592 secs,      31.5464 GFLOP/s
          dEdP:     8.1838 GFlops,       1.5440 secs,       5.3003 GFLOP/s
            UV:   259.5226 GFlops,       9.4312 secs,      27.5175 GFLOP/s
            F1:     6.7922 GFlops,       3.1081 secs,       2.1853 GFLOP/s
            F2:     4.3592 GFlops,       5.1169 secs,       0.8519 GFLOP/s
        forces:     1.2165 GFlops,       0.5449 secs,       2.2326 GFLOP/s
--------------------------------------------------------------------------
       Overall:   708.6217 GFlops,      47.2586 secs,      14.9946 GFLOP/s
--------------------------------------------------------------------------

Total wall time: 0:00:48
