LAMMPS (4 May 2022)
  using 1 OpenMP thread(s) per MPI task
variable                    T equal 300
variable                    R equal 984523

units		                metal
dimension                   3
boundary	                p p p
atom_style	                atomic

lattice                     bcc 3.189
Lattice spacing in x,y,z = 3.189 3.189 3.189
region                      box block 0 8 0 8 0 8
create_box                  1 box
Created orthogonal box = (0 0 0) to (25.512 25.512 25.512)
  2 by 2 by 4 MPI processor grid
create_atoms                1 box
Created 1024 atoms
  using lattice units in orthogonal box = (0 0 0) to (25.512 25.512 25.512)
  create_atoms CPU = 0.003 seconds

pair_style	                tensormd
pair_coeff	                * * ../../../W_k32_snapshot.npz W interp 0.1 1
Use interpolation: dr = 0.1000, algo = batch

mass                        1 183.8

neighbor                    1.0 bin
neigh_modify                every 1 delay 0 check yes

thermo                      1
thermo_style                custom step cpu temp ke pe etotal press vol pxx pyy pzz

velocity                    all create $T $R dist gaussian
velocity                    all create 300 $R dist gaussian
velocity                    all create 300 984523 dist gaussian
fix                         1 all nvt temp $T $T 0.1
fix                         1 all nvt temp 300 $T 0.1
fix                         1 all nvt temp 300 300 0.1
dump                        1 all custom 1 dump.fnn id type x y z fx fy fz

run                         1000
Neighbor list info ...
  update every 1 steps, delay 0 steps, check yes
  max neighbors/atom: 2000, page size: 100000
  master list distance cutoff = 7
  ghost atom cutoff = 7
  binsize = 3.5, bins = 8 8 8
  1 neighbor lists, perpetual/occasional/extra = 1 0 0
  (1) pair tensormd, perpetual
      attributes: full, newton on
      pair build: full/bin/atomonly
      stencil: full/bin/3d
      bin: standard
Per MPI rank memory allocation (min/avg/max) = 12.19 | 12.19 | 12.19 Mbytes
   Step          CPU            Temp          KinEng         PotEng         TotEng         Press          Volume          Pxx            Pyy            Pzz      
         0   0              300            39.669939     -13096.002     -13056.332     -3842.0468      16604.795     -3685.7232     -4071.3945     -3769.0228    
         1   0.004527412    299.67026      39.626335     -13095.959     -13056.332     -3829.2888      16604.795     -3672.0255     -4059.9834     -3755.8575    
         2   0.00888209     298.69109      39.496858     -13095.829     -13056.332     -3747.0526      16604.795     -3586.7339     -3989.0859     -3665.3381    
         3   0.012401496    297.10348      39.286923     -13095.618     -13056.331     -3398.4182      16604.795     -3216.3474     -3662.3963     -3316.511     
         4   0.015881496    294.958        39.00322      -13095.334     -13056.331     -2822.9952      16604.795     -2620.0567     -3123.9656     -2724.9635    
         5   0.019569159    292.27184      38.64802      -13094.979     -13056.331     -2290.659       16604.795     -2093.1761     -2590.4206     -2188.3802    
         6   0.023004621    289.0415       38.220861     -13094.551     -13056.33      -1855.2815      16604.795     -1676.2155     -2139.4131     -1750.216     
         7   0.026665917    285.26851      37.721948     -13094.051     -13056.329     -1545.3774      16604.795     -1380.8864     -1802.8228     -1452.4232    
         8   0.030119714    280.97042      37.153598     -13093.481     -13056.328     -1309.8525      16604.795     -1147.0267     -1549.3652     -1233.1655    
         9   0.033774527    276.17421      36.51938      -13092.846     -13056.326     -1127.8283      16604.795     -966.17475     -1357.7065     -1059.6037    
        10   0.037413908    270.90294      35.822343     -13092.146     -13056.324     -990.03256      16604.795     -838.32471     -1209.5036     -922.26939    
        11   0.041755973    265.19219      35.067193     -13091.388     -13056.321     -771.4063       16604.795     -626.98085     -992.83113     -694.40692    
        12   0.045985538    259.07793      34.258685     -13090.575     -13056.317     -504.5025       16604.795     -373.72771     -717.12132     -422.65848    
        13   0.049571136    252.59382      33.401271     -13089.713     -13056.312     -210.78174      16604.795     -91.965245     -413.34469     -127.03528    
        14   0.053236089    245.7761       32.499743     -13088.806     -13056.306      180.63365      16604.795      303.56576     -20.079754      258.41495    
        15   0.056761088    238.65412      31.557981     -13087.858     -13056.3        533.88348      16604.795      664.98319      330.8056       605.86163    
        16   0.060268541    231.25824      30.58         -13086.872     -13056.292      887.69912      16604.795      1028.8983      677.40805      956.79105    
        17   0.063893358    223.62196      29.570231     -13085.854     -13056.284      1308.8881      16604.795      1454.6257      1099.4007      1372.6378    
        18   0.067393125    215.76845      28.531737     -13084.805     -13056.274      1766.822       16604.795      1914.1915      1555.4377      1830.8367    
        19   0.071336458    207.71874      27.467299     -13083.73      -13056.262      2298.5482      16604.795      2466.005       2081.2875      2348.352     
        20   0.076037819    199.50838      26.381617     -13082.632     -13056.25       2903.3803      16604.795      3094.6743      2680.0974      2935.3693    
        21   0.079563785    191.17559      25.279747     -13081.516     -13056.236      3526.3901      16604.795      3739.0038      3294.7505      3545.4159    
        22   0.082943038    182.75703      24.166534     -13080.388     -13056.221      4129.8686      16604.795      4370.6424      3884.6157      4134.3476    
        23   0.086408758    174.28518      23.046274     -13079.251     -13056.205      4752.903       16604.795      5012.5522      4508.6811      4737.4757    
        24   0.090028371    165.7928       21.9233       -13078.111     -13056.187      5381.0862      16604.795      5646.1925      5141.8499      5355.216     
        25   0.093484302    157.31564      20.802339     -13076.971     -13056.169      6054.2769      16604.795      6333.7611      5808.5335      6020.5359    
        26   0.097177446    148.89128      19.68836      -13075.838     -13056.15       6661.8477      16604.795      6954.1543      6402.6959      6628.6928    
        27   0.10108358     140.55671      18.586254     -13074.716     -13056.129      7220.6053      16604.795      7518.2273      6959.3554      7184.2332    
        28   0.10591009     132.34548      17.500456     -13073.609     -13056.108      7780.4806      16604.795      8072.4157      7527.3222      7741.704     
        29   0.10959187     124.28958      16.4352       -13072.522     -13056.087      8302.3703      16604.795      8576.2546      8071.0664      8259.7899    
        30   0.12102409     116.41977      15.394551     -13071.459     -13056.065      8819.4607      16604.795      9074.9323      8603.7755      8779.6742    
        31   0.12486419     108.76604      14.382473     -13070.425     -13056.042      9311.6233      16604.795      9562.0874      9101.7495      9271.0329    
        32   0.12837511     101.35619      13.402646     -13069.423     -13056.02       9780.3331      16604.795      10033.389      9574.9277      9732.6831    
        33   0.13494226     94.217392      12.458661     -13068.456     -13055.997      10189.297      16604.795      10447.496      9986.8315      10133.563    
        34   0.13871598     87.376604      11.554082     -13067.529     -13055.975      10565.678      16604.795      10827.856      10366.714      10502.465    
        35   0.14221839     80.857567      10.692049     -13066.645     -13055.953      10932.035      16604.795      11191.428      10742.319      10862.358    
        36   0.14578495     74.681441      9.8753605     -13065.807     -13055.932      11294.22       16604.795      11550.515      11121.251      11210.893    
        37   0.14934554     68.868785      9.1067349     -13065.018     -13055.911      11599.605      16604.795      11849.572      11439.95       11509.292    
        38   0.15291966     63.439522      8.3888064     -13064.279     -13055.891      11872.807      16604.795      12125.908      11719.608      11772.906    
        39   0.15639915     58.412893      7.7241195     -13063.595     -13055.871      12151.488      16604.795      12408.335      11994.017      12052.111    
        40   0.16020359     53.805961      7.1149306     -13062.968     -13055.853      12408.727      16604.795      12675.176      12243.45       12307.555    
        41   0.16371324     49.632673      6.5630836     -13062.398     -13055.835      12624.759      16604.795      12892.593      12459.13       12522.553    
        42   0.1677338      45.905934      6.0702852     -13061.889     -13055.819      12821.21       16604.795      13089.196      12655.996      12718.439    
        43   0.17228132     42.6368        5.6379974     -13061.441     -13055.803      12986.643      16604.795      13254.059      12820.911      12884.958    
        44   0.17594866     39.833241      5.2672741     -13061.056     -13055.789      13132.057      16604.795      13400.768      12965.342      13030.061    
        45   0.17941591     37.501886      4.9589918     -13060.734     -13055.775      13258.503      16604.795      13526.375      13088.673      13160.462    
        46   0.18296415     35.647848      4.7138265     -13060.475     -13055.761      13351.442      16604.795      13613.144      13186.099      13255.084    
        47   0.18648844     34.273617      4.5321076     -13060.281     -13055.749      13411.979      16604.795      13667.027      13251.461      13317.449    
        48   0.19003724     33.379328      4.413853      -13060.151     -13055.737      13450.132      16604.795      13702.744      13291.254      13356.398    
        49   0.19358934     32.962842      4.3587797     -13060.084     -13055.725      13466.434      16604.795      13711.772      13309.129      13378.401    
        50   0.1992589      33.019825      4.3663147     -13060.08      -13055.713      13453.375      16604.795      13697.202      13295.593      13367.331    
        51   0.20331948     33.543592      4.4355741     -13060.137     -13055.702      13413.127      16604.795      13654.857      13256.991      13327.533    
        52   0.20700774     34.52594       4.565473      -13060.256     -13055.69       13352.509      16604.795      13593.063      13198.015      13266.45     
        53   0.21046505     35.956751      4.7546737     -13060.433     -13055.679      13261.284      16604.795      13499.085      13109.359      13175.407    
        54   0.21405273     37.823034      5.001458      -13060.668     -13055.666      13135.633      16604.795      13370.811      12987.408      13048.68     
        55   0.21760395     40.109585      5.3038159     -13060.958     -13055.654      12976.168      16604.795      13208.115      12831.481      12888.908    
        56   0.2212046      42.800082      5.6595887     -13061.3       -13055.64       12786.064      16604.795      13012.341      12635.277      12710.573    
        57   0.22475399     45.87713       6.0664764     -13061.693     -13055.626      12586.297      16604.795      12807.131      12429.756      12522.004    
        58   0.22937766     49.320829      6.5218475     -13062.133     -13055.611      12367.773      16604.795      12588.134      12199.79       12315.394    
        59   0.23355106     53.10691       7.0224928     -13062.618     -13055.596      12112.255      16604.795      12325.139      11931.287      12080.338    
        60   0.23724772     57.210246      7.5650899     -13063.144     -13055.578      11824.774      16604.795      12039.303      11621.533      11813.484    
        61   0.24089038     61.607375      8.146536      -13063.707     -13055.56       11537.722      16604.795      11758.45       11317.027      11537.688    
        62   0.24438828     66.273971      8.7636145     -13064.304     -13055.54       11225.875      16604.795      11440.601      10996.572      11240.451    
        63   0.24814551     71.187087      9.4132912     -13064.932     -13055.519      10932.317      16604.795      11143.139      10696.502      10957.311    
        64   0.25178973     76.326098      10.092839     -13065.589     -13055.496      10631.031      16604.795      10845.759      10379.445      10667.89     
        65   0.25586024     81.66575       10.798918     -13066.27      -13055.471      10328.532      16604.795      10537.645      10061.24       10386.711    
        66   0.26066401     87.176378      11.527605     -13066.973     -13055.445      10022.871      16604.795      10215.904      9762.0417      10090.668    
        67   0.2642888      92.829715      12.275164     -13067.692     -13055.417      9687.3655      16604.795      9877.6557      9414.0456      9770.3951    
        68   0.26794097     98.596912      13.037778     -13068.424     -13055.386      9360.3241      16604.795      9555.7729      9078.547       9446.6524    
        69   0.27180402     104.4496       13.811697     -13069.166     -13055.354      9035.0071      16604.795      9217.1457      8755.4362      9132.4396    
        70   0.2752628      110.3653       14.593949     -13069.913     -13055.32       8685.681       16604.795      8850.2028      8393.0997      8813.7405    
        71   0.27896659     116.32622      15.382181     -13070.665     -13055.283      8281.7402      16604.795      8438.8585      7978.6245      8427.7376    
        72   0.28353478     122.3077       16.17313      -13071.418     -13055.244      7921.0752      16604.795      8060.0056      7612.158       8091.0621    
        73   0.28961034     128.28168      16.963088     -13072.167     -13055.203      7598.9392      16604.795      7710.7189      7292.4582      7793.6404    
        74   0.29370772     134.22545      17.749051     -13072.91      -13055.161      7279.0937      16604.795      7381.0527      6981.7548      7474.4735    
        75   0.29721127     140.11309      18.527593     -13073.643     -13055.116      6951.9985      16604.795      7038.9326      6665.963       7151.1       
        76   0.30088951     145.91916      19.295347     -13074.364     -13055.069      6619.9808      16604.795      6696.4726      6334.384       6829.0859    
        77   0.30431102     151.62145      20.049378     -13075.069     -13055.02       6268.943       16604.795      6334.0077      5991.3768      6481.4445    
        78   0.30790313     157.19535      20.786433     -13075.755     -13054.969      5962.5705      16604.795      6025.414       5701.1489      6161.1485    
        79   0.31241711     162.61796      21.503482     -13076.42      -13054.916      5654.5559      16604.795      5713.0649      5408.3589      5842.244     
        80   0.31923652     167.87392      22.198493     -13077.06      -13054.861      5341.3475      16604.795      5388.6334      5110.3863      5525.0227    
        81   0.32393114     172.9503       22.869759     -13077.674     -13054.805      5050.505       16604.795      5106.3376      4831.7601      5213.4173    
        82   0.32717949     177.83142      23.515206     -13078.262     -13054.747      4811.7998      16604.795      4896.0771      4585.9882      4953.3343    
        83   0.33044243     182.50301      24.132944     -13078.82      -13054.687      4614.5226      16604.795      4700.4119      4390.2166      4752.9395    
        84   0.33477696     186.9559       24.721764     -13079.348     -13054.627      4437.3202      16604.795      4520.3688      4218.9947      4572.597     
        85   0.33809127     191.17793      25.280055     -13079.845     -13054.565      4194.159       16604.795      4261.3076      3989.7563      4331.413     
        86   0.34195006     195.15044      25.805353     -13080.307     -13054.502      3985.9143      16604.795      4031.1205      3791.6089      4135.0133    
        87   0.34662597     198.85621      26.295379     -13080.733     -13054.438      3833.7408      16604.795      3865.0569      3646.6859      3989.4797    
        88   0.35110484     202.28601      26.748912     -13081.122     -13054.373      3703.9111      16604.795      3735.9456      3507.7812      3868.0065    
        89   0.3550593      205.43422      27.165209     -13081.473     -13054.307      3595.4568      16604.795      3639.169       3395.3593      3751.8421    
        90   0.35861691     208.29746      27.543824     -13081.785     -13054.241      3510.8381      16604.795      3558.0342      3338.0204      3636.4596    
        91   0.36207587     210.87398      27.884526     -13082.059     -13054.174      3426.224       16604.795      3471.3579      3265.9728      3541.3412    
        92   0.36532295     213.16183      28.187056     -13082.294     -13054.107      3354.046       16604.795      3403.0486      3208.0933      3450.9962    
        93   0.3691885      215.1647       28.451901     -13082.492     -13054.04       3256.4213      16604.795      3311.4789      3126.7114      3331.0735    
        94   0.37397682     216.88155      28.678926     -13082.651     -13053.972      3166.1402      16604.795      3209.0393      3062.1725      3227.209     
        95   0.37739852     218.30675      28.867385     -13082.772     -13053.904      3086.1         16604.795      3130.6997      2997.5434      3130.0567    
        96   0.38053338     219.43631      29.01675      -13082.854     -13053.837      3001.9771      16604.795      3016.0174      2943.8822      3046.0317    
        97   0.38497651     220.27594      29.127777     -13082.897     -13053.769      3001.6935      16604.795      3008.89        2942.2219      3053.9684    
        98   0.38822014     220.83977      29.202334     -13082.903     -13053.701      2982.591       16604.795      2979.4336      2939.7145      3028.625     
        99   0.39152711     221.13682      29.241614     -13082.875     -13053.633      2955.5267      16604.795      2935.6348      2916.5151      3014.4303    
       100   0.39524794     221.17341      29.246452     -13082.812     -13053.566      2963.2107      16604.795      2934.0983      2916.4021      3039.1318    
       101   0.40007338     220.95997      29.218228     -13082.717     -13053.499      3026.9439      16604.795      2989.0704      2974.7557      3117.0055    
       102   0.40384778     220.50994      29.158719     -13082.591     -13053.432      3115.4767      16604.795      3078.8677      3042.1313      3225.431     
       103   0.4070989      219.837        29.069735     -13082.435     -13053.365      3202.7388      16604.795      3165.3054      3116.2295      3326.6813    
       104   0.4105359      218.95519      28.95313      -13082.252     -13053.299      3325.8363      16604.795      3295.3135      3223.5185      3458.677     
       105   0.41371938     217.87805      28.810696     -13082.044     -13053.233      3438.0588      16604.795      3410.8274      3321.8943      3581.4548    
       106   0.41714513     216.61499      28.643678     -13081.811     -13053.168      3564.758       16604.795      3537.0203      3440.1792      3717.0744    
       107   0.42060849     215.17411      28.453146     -13081.556     -13053.103      3746.904       16604.795      3734.8324      3618.0228      3887.8566    
       108   0.42460929     213.57227      28.241329     -13081.279     -13053.038      3943.5561      16604.795      3928.1118      3830.8488      4071.7078    
       109   0.43013532     211.8281       28.010692     -13080.984     -13052.974      4127.9042      16604.795      4128.4417      4016.2437      4239.0271    
       110   0.43494819     209.95362      27.762824     -13080.673     -13052.91       4277.2855      16604.795      4296.4851      4163.4215      4371.9501    
       111   0.439744       207.96291      27.499586     -13080.346     -13052.846      4424.9006      16604.795      4463.5193      4300.5596      4510.623     
       112   0.44417634     205.87659      27.223706     -13080.007     -13052.783      4607.0071      16604.795      4658.2431      4482.7651      4680.013     
       113   0.44866478     203.71371      26.937701     -13079.658     -13052.721      4788.1519      16604.795      4839.5978      4679.7066      4845.1513    
       114   0.45393809     201.48484      26.642971     -13079.301     -13052.659      4998.8864      16604.795      5040.9518      4900.3265      5055.381     
       115   0.45993269     199.1987       26.340667     -13078.937     -13052.597      5188.1949      16604.795      5218.108       5102.583       5243.8936    
       116   0.46414565     196.86713      26.032357     -13078.568     -13052.535      5393.7803      16604.795      5410.6985      5323.366       5447.2765    
       117   0.46834388     194.50309      25.719752     -13078.194     -13052.474      5605.0271      16604.795      5640.7042      5539.9152      5634.4618    
       118   0.47259373     192.12181      25.404868     -13077.819     -13052.414      5807.8591      16604.795      5875.4803      5718.8409      5829.256     
       119   0.47699116     189.7381       25.089662     -13077.443     -13052.353      6000.1266      16604.795      6092.5257      5906.3279      6001.5263    
       120   0.48094064     187.36596      24.775987     -13077.069     -13052.293      6180.9801      16604.795      6274.6756      6092.7582      6175.5067    
       121   0.48648343     185.01876      24.46561      -13076.7       -13052.234      6349.9402      16604.795      6455.4247      6254.9025      6339.4932    
       122   0.49174088     182.7045       24.159588     -13076.334     -13052.175      6496.7411      16604.795      6611.7226      6404.1841      6474.3166    
       123   0.4960772      180.43282      23.859197     -13075.975     -13052.116      6672.3365      16604.795      6780.7609      6575.0158      6661.2328    
       124   0.50064339     178.21655      23.566132     -13075.623     -13052.057      6846.9511      16604.795      6968.8182      6735.2881      6836.7471    
       125   0.50485059     176.06743      23.281947     -13075.28      -13051.998      7034.5083      16604.795      7170.0071      6900.785       7032.7327    
       126   0.50913869     173.99531      23.007944     -13074.948     -13051.94       7213.219       16604.795      7353.9019      7056.8787      7228.8764    
       127   0.51409699     172.00843      22.745212     -13074.627     -13051.882      7359.9273      16604.795      7505.8005      7195.715       7378.2663    
       128   0.51985572     170.11317      22.494597     -13074.319     -13051.824      7469.3778      16604.795      7617.6665      7305.9146      7484.5522    
       129   0.52432915     168.31432      22.256729     -13074.023     -13051.766      7659.3362      16604.795      7833.438       7478.2557      7666.3149    
       130   0.52850884     166.61923      22.032582     -13073.742     -13051.709      7834.3933      16604.795      8019.6839      7618.8628      7864.6331    
       131   0.53299347     165.03271      21.822791     -13073.474     -13051.652      7968.7542      16604.795      8163.0266      7734.7021      8008.5341    
       132   0.537579       163.55368      21.627214     -13073.222     -13051.594      8087.9848      16604.795      8295.7511      7849.1357      8119.0676    
       133   0.5418001      162.18376      21.446066     -13072.983     -13051.537      8201.1053      16604.795      8428.2281      7972.1296      8202.9583    
       134   0.54656191     160.92284      21.27933      -13072.759     -13051.48       8299.48        16604.795      8539.5469      8073.576       8285.317     
       135   0.55238098     159.76782      21.126598     -13072.55      -13051.423      8354.8605      16604.795      8598.5319      8143.2311      8322.8186    
       136   0.55673845     158.71631      20.987554     -13072.354     -13051.366      8431.4505      16604.795      8675.7257      8235.9347      8382.6912    
       137   0.56122653     157.76855      20.862229     -13072.171     -13051.309      8503.6897      16604.795      8749.1424      8311.901       8450.0258    
       138   0.5655482      156.92566      20.750771     -13072.003     -13051.252      8553.4239      16604.795      8806.449       8351.3232      8502.4995    
       139   0.56996107     156.18359      20.652645     -13071.848     -13051.195      8598.7446      16604.795      8854.0589      8393.4773      8548.6974    
       140   0.57452513     155.53779      20.567249     -13071.705     -13051.138      8632.6047      16604.795      8870.4347      8452.5603      8574.8192    
       141   0.58000447     154.98588      20.494268     -13071.575     -13051.081      8675.9574      16604.795      8891.0367      8520.7067      8616.129     
       142   0.58494427     154.525        20.433324     -13071.457     -13051.024      8705.3474      16604.795      8896.336       8558.1847      8661.5216    
       143   0.58912983     154.15028      20.383773     -13071.35      -13050.966      8717.9619      16604.795      8888.9853      8580.2138      8684.6867    
       144   0.59344073     153.85777      20.345094     -13071.254     -13050.909      8762.4405      16604.795      8929.3305      8631.7146      8726.2764    
       145   0.59748642     153.6456       20.317038     -13071.169     -13050.852      8773.767       16604.795      8925.0427      8655.9235      8740.3347    
       146   0.60156921     153.50994      20.2991       -13071.093     -13050.794      8821.2462      16604.795      8956.9936      8717.6933      8789.0518    
       147   0.6063281      153.44591      20.290633     -13071.027     -13050.736      8867.7892      16604.795      8998.8773      8780.9423      8823.548     
       148   0.61225959     153.44544      20.290571     -13070.969     -13050.678      8935.1351      16604.795      9082.0885      8850.5787      8872.7383    
       149   0.61680965     153.49725      20.297421     -13070.917     -13050.62       8976.4542      16604.795      9123.021       8906.0783      8900.2632    
       150   0.62112036     153.59223      20.309981     -13070.872     -13050.562      8982.0157      16604.795      9125.013       8934.0237      8887.0104    
       151   0.62545863     153.72403      20.32741      -13070.83      -13050.503      8970.2022      16604.795      9116.743       8935.9969      8857.8668    
       152   0.63000971     153.88803      20.349096     -13070.793     -13050.444      8938.591       16604.795      9081.7177      8906.0092      8828.0461    
       153   0.63427704     154.08231      20.374786     -13070.76      -13050.385      8917.1508      16604.795      9062.4738      8883.1424      8805.8364    
       154   0.63968572     154.30212      20.403852     -13070.73      -13050.326      8929.2571      16604.795      9080.7703      8901.5059      8805.4949    
       155   0.64486506     154.53875      20.435143     -13070.702     -13050.267      8895.6618      16604.795      9041.6491      8883.4604      8761.8759    
       156   0.64903532     154.78387      20.467556     -13070.675     -13050.208      8856.7071      16604.795      8988.7107      8860.055       8721.3557    
       157   0.65364116     155.02549      20.499505     -13070.648     -13050.148      8817.4389      16604.795      8925.5574      8826.0131      8700.7462    
       158   0.65797418     155.25482      20.529831     -13070.618     -13050.088      8785.9995      16604.795      8860.7536      8812.331       8684.9138    
       159   0.66241267     155.46923      20.558182     -13070.586     -13050.028      8793.2188      16604.795      8842.3983      8828.4973      8708.7607    
       160   0.66718985     155.66602      20.584205     -13070.552     -13049.968      8751.254       16604.795      8791.0965      8780.6604      8682.005     
       161   0.67286383     155.83882      20.607054     -13070.515     -13049.908      8741.6607      16604.795      8758.1767      8767.5744      8699.2309    
       162   0.67736817     155.98123      20.625886     -13070.473     -13049.848      8742.2284      16604.795      8737.2242      8762.7011      8726.7599    
       163   0.68139242     156.08884      20.640116     -13070.427     -13049.787      8739.7392      16604.795      8714.1472      8759.2092      8745.8611    
       164   0.68591961     156.16319      20.649947     -13070.376     -13049.726      8718.3226      16604.795      8667.7231      8738.7387      8748.5061    
       165   0.69038898     156.20696      20.655735     -13070.321     -13049.666      8747.1775      16604.795      8667.7667      8774.9867      8798.7792    
       166   0.69466362     156.21713      20.65708      -13070.262     -13049.605      8820.1799      16604.795      8712.2004      8867.6385      8880.701     
       167   0.69963901     156.19088      20.653609     -13070.197     -13049.544      8857.931       16604.795      8737.5098      8907.6917      8928.5914    
       168   0.70544828     156.12792      20.645283     -13070.128     -13049.483      8881.1164      16604.795      8755.7724      8916.7733      8970.8035    
       169   0.70968207     156.02702      20.631941     -13070.054     -13049.422      8941.4436      16604.795      8821.1469      8945.8098      9057.3742    
       170   0.71388807     155.8882       20.613584     -13069.975     -13049.361      9015.9965      16604.795      8887.6796      9004.2595      9156.0504    
       171   0.71806207     155.7159       20.5908       -13069.891     -13049.3        9059.664       16604.795      8923.7924      9038.8658      9216.334     
       172   0.72256904     155.5134       20.564023     -13069.803     -13049.239      9076.3724      16604.795      8934.2765      9066.3029      9228.5379    
       173   0.72686005     155.27709      20.532775     -13069.711     -13049.178      9136.6593      16604.795      8958.1478      9137.9748      9313.8551    
       174   0.73248511     155.01187      20.497705     -13069.615     -13049.117      9185.2262      16604.795      8982.428       9190.8793      9382.3714    
       175   0.73779619     154.73549      20.461158     -13069.517     -13049.056      9238.5577      16604.795      9031.6052      9227.2923      9456.7756    
       176   0.74181488     154.4592       20.424623     -13069.42      -13048.995      9303.4143      16604.795      9085.5631      9294.1851      9530.4945    
       177   0.74596916     154.18364      20.388186     -13069.322     -13048.934      9361.2191      16604.795      9110.0518      9382.8427      9590.7628    
       178   0.75012671     153.91049      20.352065     -13069.225     -13048.873      9443.2195      16604.795      9170.6876      9493.5892      9665.3818    
       179   0.75452982     153.64813      20.317373     -13069.129     -13048.812      9524.8238      16604.795      9236.6394      9600.1632      9737.6687    
       180   0.75937052     153.40981      20.285859     -13069.037     -13048.751      9593.0852      16604.795      9296.5916      9686.7776      9795.8864    
       181   0.76512048     153.20382      20.258621     -13068.948     -13048.69       9662.1981      16604.795      9373.7233      9768.2297      9844.6412    
       182   0.76986797     153.03447      20.236227     -13068.865     -13048.629      9696.7695      16604.795      9409.3405      9817.2919      9863.676     
       183   0.7739916      152.90878      20.219607     -13068.787     -13048.568      9726.4491      16604.795      9431.4111      9858.1624      9889.7739    
       184   0.7784918      152.83243      20.209511     -13068.716     -13048.507      9791.2329      16604.795      9505.7304      9919.878       9948.0902    
       185   0.78281602     152.81425      20.207106     -13068.653     -13048.445      9863.2496      16604.795      9580.0625      9991.9687      10017.718    
       186   0.78706993     152.8661       20.213963     -13068.598     -13048.384      9897.5691      16604.795      9611.7707      10038.973      10041.964    
       187   0.79205405     152.99423      20.230906     -13068.553     -13048.323      9917.2476      16604.795      9639.2162      10069.908      10042.619    
       188   0.79789765     153.2056       20.258856     -13068.52      -13048.261      9937.9749      16604.795      9662.3212      10100.688      10050.915    
       189   0.80229613     153.50877      20.298945     -13068.498     -13048.199      9987.0058      16604.795      9714.0664      10151.538      10095.413    
       190   0.80641637     153.90584      20.351451     -13068.489     -13048.137      10040.857      16604.795      9783.8175      10207.944      10130.811    
       191   0.81035156     154.40179      20.417032     -13068.492     -13048.075      10103.337      16604.795      9857.3257      10279.299      10173.388    
       192   0.81466092     155.00355      20.496604     -13068.509     -13048.012      10159.606      16604.795      9923.6093      10343.932      10211.277    
       193   0.81887608     155.71054      20.590092     -13068.54      -13047.949      10232.855      16604.795      10004.233      10413.531      10280.802    
       194   0.82434949     156.5256       20.697869     -13068.584     -13047.886      10285.565      16604.795      10066.726      10462.142      10327.828    
       195   0.83002426     157.45756      20.821105     -13068.644     -13047.822      10288.89       16604.795      10083.583      10464.888      10318.199    
       196   0.83443597     158.50886      20.960122     -13068.718     -13047.758      10290.768      16604.795      10099.435      10459.249      10313.621    
       197   0.83898974     159.68137      21.115167     -13068.809     -13047.694      10308.332      16604.795      10119.55       10468.728      10336.718    
       198   0.84323579     160.97905      21.286763     -13068.915     -13047.629      10310.142      16604.795      10116.496      10467.13       10346.801    
       199   0.84760113     162.40115      21.474813     -13069.038     -13047.563      10305.653      16604.795      10104.612      10472.793      10339.554    
       200   0.85267369     163.94243      21.678621     -13069.175     -13047.497      10287.669      16604.795      10076.561      10460.846      10325.599    
       201   0.85873544     165.60166      21.898025     -13069.328     -13047.43       10247.711      16604.795      10030.174      10435.193      10277.766    
       202   0.86326552     167.37697      22.13278      -13069.495     -13047.362      10224.485      16604.795      10009.459      10414.851      10249.145    
       203   0.8674764      169.26211      22.382058     -13069.676     -13047.294      10215.582      16604.795      10007.464      10399.286      10239.996    
       204   0.87180533     171.25346      22.64538      -13069.871     -13047.226      10152.517      16604.795      9953.6449      10330.783      10173.124    
       205   0.87629348     173.35136      22.922792     -13070.079     -13047.156      10117.506      16604.795      9909.3035      10300.372      10142.843    
       206   0.88044433     175.55477      23.214156     -13070.3       -13047.086      10048.177      16604.795      9843.4191      10240.085      10061.025    
       207   0.88574564     177.85604      23.51846      -13070.533     -13047.015      9988.4391      16604.795      9784.8163      10180.298      10000.203    
       208   0.89118515     180.24733      23.834668     -13070.778     -13046.943      9894.912       16604.795      9704.483       10082.676      9897.5768    
       209   0.89548798     182.72314      24.162052     -13071.033     -13046.871      9775.3632      16604.795      9597.1889      9956.9808      9771.9197    
       210   0.90000596     185.27568      24.499583     -13071.297     -13046.797      9677.881       16604.795      9497.7978      9854.2544      9681.5907    
       211   0.90429421     187.89849      24.846406     -13071.57      -13046.723      9597.7937      16604.795      9426.224       9751.8246      9615.3327    
       212   0.90846429     190.5831       25.2014       -13071.85      -13046.649      9511.4862      16604.795      9345.9706      9652.9323      9535.5556    
       213   0.91265768     193.31885      25.563156     -13072.136     -13046.573      9387.3365      16604.795      9226.9566      9497.936       9437.117     
       214   0.9178746      196.09568      25.930345     -13072.427     -13046.497      9221.6488      16604.795      9066.1274      9312.0442      9286.7747    
       215   0.92312167     198.89679      26.300745     -13072.72      -13046.419      9037.2114      16604.795      8899.4868      9100.4788      9111.6687    
       216   0.92747445     201.70643      26.672272     -13073.014     -13046.341      8873.4812      16604.795      8749.6537      8920.8117      8949.9783    
       217   0.93186993     204.51324      27.043425     -13073.306     -13046.263      8729.3342      16604.795      8629.9289      8755.6919      8802.3817    
       218   0.93599171     207.30425      27.41249      -13073.596     -13046.184      8619.2798      16604.795      8520.4657      8642.9054      8694.4684    
       219   0.94049192     210.06679      27.777789     -13073.882     -13046.104      8492.4813      16604.795      8401.9463      8508.6913      8566.8063    
       220   0.94539473     212.78975      28.137854     -13074.161     -13046.023      8314.9432      16604.795      8227.2482      8323.1593      8394.4222    
       221   0.95123057     215.46259      28.491293     -13074.433     -13045.942      8158.505       16604.795      8063.5193      8163.271       8248.7246    
       222   0.9557745      218.07144      28.836269     -13074.697     -13045.861      8000.9125      16604.795      7906.2114      8015.0978      8081.4282    
       223   0.95984896     220.60171      29.170854     -13074.949     -13045.778      7887.2226      16604.795      7798.9344      7908.8366      7953.8967    
       224   0.96407342     223.0416       29.493489     -13075.19      -13045.696      7727.3191      16604.795      7649.4716      7765.3365      7767.1493    
       225   0.96839905     225.37613      29.802191     -13075.415     -13045.613      7594.0873      16604.795      7532.5058      7625.2738      7624.4821    
       226   0.97270364     227.59118      30.095094     -13075.625     -13045.53       7490.3527      16604.795      7451.5849      7506.9109      7512.5624    
       227   0.97778868     229.68007      30.371314     -13075.818     -13045.447      7354.7582      16604.795      7322.0855      7377.9         7364.2892    
       228   0.9835874      231.63148      30.629355     -13075.992     -13045.363      7244.6481      16604.795      7207.9436      7280.1537      7245.847     
       229   0.98788812     233.43426      30.867743     -13076.147     -13045.279      7200.9221      16604.795      7189.024       7221.1284      7192.6138    
       230   0.99198526     235.07709      31.084979     -13076.281     -13045.196      7140.6868      16604.795      7138.4826      7144.59        7138.9877    
       231   0.99597442     236.5465       31.279284     -13076.391     -13045.112      7105.8336      16604.795      7100.9803      7093.9356      7122.5849    
       232   1.0004572      237.83528      31.449703     -13076.478     -13045.028      7033.4074      16604.795      7025.8311      7019.0217      7055.3695    
       233   1.0047959      238.9378       31.595492     -13076.54      -13044.944      6974.9558      16604.795      6987.2631      6946.3718      6991.2326    
       234   1.0103801      239.8475       31.715785     -13076.577     -13044.861      6940.2835      16604.795      6953.9814      6911.9642      6954.9049    
       235   1.0150709      240.55607      31.809482     -13076.587     -13044.778      6863.7265      16604.795      6870.9984      6830.3916      6889.7895    
       236   1.019366       241.05445      31.875383     -13076.57      -13044.695      6779.44        16604.795      6781.2365      6744.2756      6812.808     
       237   1.0234011      241.33828      31.912915     -13076.525     -13044.612      6798.1693      16604.795      6798.7021      6754.3447      6841.4611    
       238   1.0274705      241.40906      31.922276     -13076.451     -13044.529      6838.9965      16604.795      6849.735       6774.4854      6892.7691    
       239   1.0316899      241.26648      31.903422     -13076.351     -13044.447      6857.5336      16604.795      6871.8615      6778.1028      6922.6366    
       240   1.0361168      240.90606      31.855762     -13076.221     -13044.366      6864.7566      16604.795      6906.7332      6769.6549      6917.8817    
       241   1.0409844      240.32687      31.779174     -13076.064     -13044.284      6878.6676      16604.795      6951.783       6766.3957      6917.8241    
       242   1.0460296      239.53828      31.674896     -13075.879     -13044.204      6893.365       16604.795      6977.3855      6789.0697      6913.6398    
       243   1.0503151      238.54929      31.544119     -13075.668     -13044.124      6968.9613      16604.795      7045.7647      6878.3279      6982.7913    
       244   1.0545644      237.36234      31.387165     -13075.432     -13044.045      7044.1375      16604.795      7121.1628      6959.739       7051.5108    
       245   1.058647       235.97981      31.204348     -13075.17      -13043.966      7173.2761      16604.795      7234.2496      7112.3666      7173.212     
       246   1.0627095      234.40597      30.996235     -13074.884     -13043.888      7317.5823      16604.795      7357.7143      7284.841       7310.1916    
       247   1.0673457      232.64259      30.763058     -13074.573     -13043.81       7448.2092      16604.795      7468.9218      7457.6794      7418.0266    
       248   1.0731808      230.69329      30.505296     -13074.239     -13043.733      7591.8829      16604.795      7595.4259      7635.3217      7544.901     
       249   1.0778973      228.56706      30.224138     -13073.881     -13043.657      7755.5279      16604.795      7740.9465      7820.7748      7704.8625    
       250   1.0823119      226.27665      29.921269     -13073.503     -13043.582      7936.8905      16604.795      7923.3266      8002.4849      7884.8599    
       251   1.0867184      223.83768      29.598757     -13073.105     -13043.507      8117.2188      16604.795      8080.5816      8183.8112      8087.2637    
       252   1.091174       221.26216      29.258188     -13072.691     -13043.433      8319.2579      16604.795      8251.6774      8402.1371      8303.9591    
       253   1.0952824      218.56019      28.900898     -13072.26      -13043.359      8563.235       16604.795      8492.9228      8655.7299      8541.0522    
       254   1.1000452      215.74801      28.529035     -13071.815     -13043.286      8794.52        16604.795      8721.9683      8878.3652      8783.2264    
       255   1.1056337      212.84451      28.145096     -13071.359     -13043.214      9015.7967      16604.795      8942.931       9078.2518      9026.2072    
       256   1.1100538      209.86286      27.750822     -13070.893     -13043.142      9271.2121      16604.795      9188.9225      9336.4657      9288.2481    
       257   1.1145987      206.81321      27.347558     -13070.419     -13043.072      9516.1791      16604.795      9391.8192      9597.0869      9559.6312    
       258   1.1189165      203.71037      26.93726      -13069.939     -13043.001      9772.5409      16604.795      9637.5775      9842.6564      9837.3888    
       259   1.1232905      200.56765      26.521688     -13069.453     -13042.932      10099.4        16604.795      9963.2491      10159.99       10174.96     
       260   1.1278154      197.40416      26.103369     -13068.966     -13042.863      10390.951      16604.795      10239.126      10441.303      10492.425    
       261   1.1333778      194.241        25.685095     -13068.479     -13042.794      10629.338      16604.795      10470.707      10682.473      10734.834    
       262   1.1384062      191.09011      25.268443     -13067.995     -13042.726      10839.552      16604.795      10681.252      10889.559      10947.843    
       263   1.1424734      187.96731      24.855505     -13067.515     -13042.659      11043.267      16604.795      10886.139      11103.511      11140.152    
       264   1.1467835      184.8933       24.44902      -13067.041     -13042.592      11276.672      16604.795      11100.207      11350.327      11379.482    
       265   1.1509839      181.88714      24.051506     -13066.578     -13042.526      11479.013      16604.795      11273.621      11559.123      11604.295    
       266   1.1554053      178.96625      23.665267     -13066.126     -13042.461      11679.4        16604.795      11465.975      11765.721      11806.503    
       267   1.1603582      176.14255      23.29188      -13065.687     -13042.395      11856.048      16604.795      11629.63       11939.081      11999.434    
       268   1.1664179      173.42528      22.932568     -13065.263     -13042.331      12029.378      16604.795      11790.329      12118.793      12179.013    
       269   1.1709575      170.82648      22.58892      -13064.855     -13042.266      12206.352      16604.795      11961.791      12301.47       12355.794    
       270   1.1752501      168.36079      22.262874     -13064.465     -13042.202      12404.084      16604.795      12165.642      12487.615      12558.995    
       271   1.1796176      166.03986      21.95597      -13064.094     -13042.138      12585.534      16604.795      12339.338      12671.04       12746.224    
       272   1.1839274      163.87677      21.669939     -13063.745     -13042.075      12701.319      16604.795      12444.726      12785.133      12874.098    
       273   1.18789        161.88774      21.406922     -13063.419     -13042.012      12828.256      16604.795      12571.41       12896.98       13016.379    
       274   1.1930163      160.08515      21.16856      -13063.117     -13041.949      12958.62       16604.795      12710.053      13010.161      13155.648    
       275   1.1984394      158.48044      20.956365     -13062.843     -13041.886      13077.269      16604.795      12831.176      13121.667      13278.964    
       276   1.2026396      157.08175      20.771412     -13062.595     -13041.824      13238.039      16604.795      12992.171      13286.687      13435.259    
       277   1.2069565      155.89323      20.61425      -13062.375     -13041.761      13354.513      16604.795      13106.72       13397.436      13559.384    
       278   1.2111881      154.92199      20.485819     -13062.184     -13041.698      13454.607      16604.795      13206.358      13496.875      13660.589    
       279   1.2156414      154.17641      20.38723      -13062.023     -13041.636      13516.092      16604.795      13265.096      13554.492      13728.69     
       280   1.2201916      153.65512      20.318297     -13061.891     -13041.573      13540.425      16604.795      13283.72       13586.834      13750.721    
       281   1.2257134      153.35603      20.278748     -13061.788     -13041.51       13571.98       16604.795      13306.589      13629.796      13779.555    
       282   1.2310397      153.28179      20.268931     -13061.715     -13041.446      13615.21       16604.795      13356.01       13683.661      13805.96     
       283   1.2352722      153.43457      20.289133     -13061.672     -13041.383      13654.501      16604.795      13389.523      13737.426      13836.552    
       284   1.2395806      153.81721      20.339731     -13061.658     -13041.318      13678.071      16604.795      13416.88       13771.496      13845.836    
       285   1.2436304      154.43266      20.421114     -13061.675     -13041.254      13701.991      16604.795      13445.637      13802.298      13858.039    
       286   1.2477408      155.2805       20.533227     -13061.722     -13041.189      13712.899      16604.795      13471.042      13819.978      13847.678    
       287   1.2524625      156.35366      20.675133     -13061.798     -13041.123      13733.335      16604.795      13505.203      13836.136      13858.667    
       288   1.2582469      157.64283      20.845604     -13061.902     -13041.057      13688.08       16604.795      13466.232      13783.019      13814.989    
       289   1.2629141      159.142        21.043844     -13062.033     -13040.989      13625.651      16604.795      13410.636      13716.879      13749.438    
       290   1.2672286      160.84854      21.269506     -13062.191     -13040.921      13550.33       16604.795      13356.688      13633.856      13660.447    
       291   1.2717576      162.75785      21.52198      -13062.375     -13040.853      13478.763      16604.795      13285.075      13573.645      13577.569    
       292   1.276186       164.86476      21.800583     -13062.584     -13040.783      13444.21       16604.795      13256.202      13542.445      13533.983    
       293   1.2804113      167.1638       22.104592     -13062.817     -13040.712      13366.195      16604.795      13195.008      13462.458      13441.118    
       294   1.2856482      169.64466      22.432644     -13063.073     -13040.641      13266.503      16604.795      13111.354      13370.183      13317.974    
       295   1.2912711      172.29838      22.783554     -13063.351     -13040.568      13209.126      16604.795      13070.289      13314.667      13242.423    
       296   1.2954663      175.11098      23.155473     -13063.65      -13040.494      13171.603      16604.795      13049.719      13278.618      13186.474    
       297   1.2999088      178.06553      23.546162     -13063.966     -13040.419      13074.521      16604.795      12969.97       13178.954      13074.639    
       298   1.3040801      181.15621      23.954853     -13064.298     -13040.343      12951.191      16604.795      12867.586      13051.944      12934.044    
       299   1.3084946      184.37494      24.380475     -13064.647     -13040.266      12860.488      16604.795      12790.321      12942.719      12848.424    
       300   1.3131231      187.70734      24.821128     -13065.009     -13040.188      12788.394      16604.795      12734.852      12852.417      12777.912    
       301   1.3188107      191.13714      25.274662     -13065.384     -13040.109      12656.199      16604.795      12600.43       12717.255      12650.912    
       302   1.3238816      194.64372      25.738347     -13065.767     -13040.029      12493.736      16604.795      12443.538      12564.394      12473.276    
       303   1.3281139      198.20826      26.209699     -13066.157     -13039.947      12339.699      16604.795      12298.109      12417.631      12303.355    
       304   1.3324718      201.8118       26.686206     -13066.551     -13039.865      12132.113      16604.795      12092.48       12210.021      12093.839    
       305   1.336909       205.43333      27.165092     -13066.946     -13039.781      11947.381      16604.795      11906.777      12035.38       11899.987    
       306   1.3411712      209.05938      27.644576     -13067.341     -13039.696      11791.996      16604.795      11778.717      11884.072      11713.2      
       307   1.3460875      212.68107      28.123484     -13067.734     -13039.611      11628.532      16604.795      11625.739      11724.298      11535.559    
       308   1.3517127      216.28531      28.600084     -13068.124     -13039.524      11491.401      16604.795      11485.388      11577.96       11410.855    
       309   1.3559945      219.85083      29.071563     -13068.509     -13039.437      11332.07       16604.795      11317.186      11416.589      11262.435    
       310   1.3602367      223.35721      29.535223     -13068.884     -13039.349      11172.391      16604.795      11140.545      11264.572      11112.055    
       311   1.364489       226.78677      29.988724     -13069.249     -13039.26       10986.947      16604.795      10950.906      11079.027      10930.909    
       312   1.3690135      230.11979      30.42946      -13069.6       -13039.171      10794.546      16604.795      10756.007      10891.272      10736.361    
       313   1.3736745      233.34459      30.855885     -13069.937     -13039.081      10637.852      16604.795      10585.119      10747.793      10580.644    
       314   1.3795188      236.45278      31.266891     -13070.257     -13038.99       10515.292      16604.795      10469.571      10641.154      10435.151    
       315   1.3845024      239.43177      31.660812     -13070.56      -13038.899      10350.288      16604.795      10320.55       10471.046      10259.267    
       316   1.3886171      242.26621      32.035619     -13070.843     -13038.808      10217.022      16604.795      10220.124      10324.772      10106.17     
       317   1.3928014      244.94636      32.390024     -13071.106     -13038.716      10137.025      16604.795      10159.805      10228.284      10022.986    
       318   1.3970361      247.46763      32.723419     -13071.348     -13038.624      10003.96       16604.795      10032.681      10081.061      9898.1391    
       319   1.4012877      249.81753      33.034154     -13071.567     -13038.533      9855.9181      16604.795      9894.4574      9919.0928      9754.2041    
       320   1.4064099      251.98211      33.320383     -13071.761     -13038.441      9705.477       16604.795      9739.9148      9747.3976      9629.1186    
       321   1.4122718      253.95334      33.581045     -13071.93      -13038.349      9610.9696      16604.795      9656.1603      9632.0108      9544.7378    
       322   1.4166412      255.725        33.815317     -13072.073     -13038.257      9501.9531      16604.795      9565.8501      9506.2286      9433.7806    
       323   1.4210456      257.29947      34.023514     -13072.189     -13038.166      9401.1338      16604.795      9471.6614      9413.2423      9318.4978    
       324   1.4254078      258.6753       34.205444     -13072.281     -13038.075      9365.5042      16604.795      9444.7162      9364.6937      9287.1025    
       325   1.4301594      259.84379      34.359958     -13072.344     -13037.984      9308.6344      16604.795      9375.686       9296.0257      9254.1913    
       326   1.4351152      260.80239      34.486715     -13072.38      -13037.894      9243.6322      16604.795      9306.9368      9212.1757      9211.7842    
       327   1.4410088      261.55309      34.585983     -13072.39      -13037.804      9195.4983      16604.795      9263.6397      9149.5202      9173.3349    
       328   1.4462659      262.09987      34.658285     -13072.373     -13037.714      9148.8775      16604.795      9243.1013      9080.0362      9123.4951    
       329   1.4504905      262.44711      34.704203     -13072.33      -13037.626      9124.6961      16604.795      9233.5307      9042.8344      9097.7233    
       330   1.4551864      262.59703      34.724026     -13072.262     -13037.537      9161.4555      16604.795      9271.1616      9079.2508      9133.9543    
       331   1.4593894      262.54323      34.716913     -13072.167     -13037.45       9179.4286      16604.795      9291.0245      9088.143       9159.1183    
       332   1.4636984      262.27502      34.681446     -13072.044     -13037.363      9193.5577      16604.795      9291.0591      9103.7196      9185.8944    
       333   1.4685607      261.79297      34.617703     -13071.894     -13037.277      9235.2227      16604.795      9323.0487      9143.7513      9238.8682    
       334   1.4745441      261.11064      34.527477     -13071.718     -13037.191      9290.1457      16604.795      9378.7136      9181.0249      9310.6985    
       335   1.4794353      260.23754      34.412025     -13071.518     -13037.106      9387.4072      16604.795      9469.9655      9271.2355      9421.0206    
       336   1.4838062      259.18107      34.272323     -13071.294     -13037.022      9490.4404      16604.795      9580.1322      9356.2147      9534.9741    
       337   1.4880879      257.95676      34.110429     -13071.048     -13036.938      9603.9078      16604.795      9683.1549      9476.8004      9651.7682    
       338   1.4920544      256.57742      33.928035     -13070.783     -13036.855      9753.6164      16604.795      9836.2556      9608.3747      9816.2189    
       339   1.4964585      255.0445       33.725332     -13070.499     -13036.773      9956.378       16604.795      10036.897      9797.4837      10034.753    
       340   1.5014984      253.36698      33.503509     -13070.195     -13036.692      10133.846      16604.795      10206.908      9975.7689      10218.862    
       341   1.5075603      251.56247      33.264892     -13069.876     -13036.611      10311.001      16604.795      10378.82       10159.562      10394.622    
       342   1.5122713      249.64679      33.011577     -13069.543     -13036.531      10416.574      16604.795      10475.924      10289.422      10484.375    
       343   1.5166119      247.63452      32.745488     -13069.198     -13036.452      10545.667      16604.795      10591.311      10447.23       10598.458    
       344   1.521057       245.54216      32.468808     -13068.842     -13036.373      10713.288      16604.795      10724.182      10642.641      10773.041    
       345   1.5254994      243.38374      32.183393     -13068.479     -13036.296      10872.3        16604.795      10845.379      10827.973      10943.548    
       346   1.5297069      241.17204      31.890934     -13068.109     -13036.218      11051.09       16604.795      11005.932      11032.389      11114.949    
       347   1.5347323      238.92272      31.593499     -13067.735     -13036.142      11220.007      16604.795      11153.435      11209.836      11296.751    
       348   1.5408205      236.64437      31.292225     -13067.358     -13036.066      11419.073      16604.795      11327.989      11410.99       11518.241    
       349   1.5451484      234.34528      30.98821      -13066.978     -13035.99       11578.096      16604.795      11457.235      11575.903      11701.15     
       350   1.5493438      232.03635      30.682893     -13066.598     -13035.915      11766.98       16604.795      11644.592      11774.767      11881.583    
       351   1.5537667      229.72862      30.377735     -13066.218     -13035.84       11945.93       16604.795      11817.164      11959.326      12061.3      
       352   1.5584896      227.43086      30.073894     -13065.84      -13035.766      12110.497      16604.795      11983          12122.285      12226.206    
       353   1.5627579      225.15728      29.773251     -13065.465     -13035.692      12270.011      16604.795      12134.993      12282.543      12392.498    
       354   1.5675866      222.93025      29.478765     -13065.097     -13035.618      12466.066      16604.795      12331.729      12482.453      12584.015    
       355   1.5732752      220.76685      29.192692     -13064.738     -13035.545      12672.961      16604.795      12528.833      12680.78       12809.269    
       356   1.5777695      218.68046      28.916802     -13064.389     -13035.472      12880.524      16604.795      12717.466      12903.559      13020.548    
       357   1.5823719      216.68239      28.65259      -13064.052     -13035.399      13053.664      16604.795      12869.454      13089.394      13202.144    
       358   1.5868368      214.77827      28.400803     -13063.728     -13035.327      13259.263      16604.795      13063.339      13294.748      13419.704    
       359   1.5913524      212.9747       28.162311     -13063.417     -13035.254      13430.939      16604.795      13208.323      13473.923      13610.569    
       360   1.5958793      211.27899      27.938081     -13063.12      -13035.182      13577.81       16604.795      13350.763      13618.071      13764.595    
       361   1.6014377      209.69884      27.729134     -13062.839     -13035.11       13692.333      16604.795      13462.411      13740.195      13874.393    
       362   1.6065333      208.24548      27.536952     -13062.574     -13035.037      13821.812      16604.795      13574.854      13877.385      14013.196    
       363   1.6107958      206.93046      27.363061     -13062.328     -13034.965      13939.832      16604.795      13683.731      14002.807      14132.956    
       364   1.6153393      205.75999      27.208287     -13062.101     -13034.893      14031.511      16604.795      13784.437      14094.879      14215.218    
       365   1.6195539      204.74219      27.073701     -13061.894     -13034.82       14126.311      16604.795      13902.03       14186.238      14290.666    
       366   1.623943       203.88809      26.96076      -13061.708     -13034.747      14201.883      16604.795      13983.187      14274.358      14348.103    
       367   1.6286415      203.20185      26.870016     -13061.544     -13034.674      14227.916      16604.795      14016.832      14306.95       14359.966    
       368   1.6345079      202.69092      26.802454     -13061.404     -13034.602      14239.184      16604.795      14046.597      14319.185      14351.769    
       369   1.6394633      202.35768      26.758389     -13061.287     -13034.528      14238.726      16604.795      14054.15       14314.493      14347.533    
       370   1.6437245      202.1921       26.736494     -13061.191     -13034.455      14199.506      16604.795      14020.22       14276.745      14301.553    
       371   1.6482171      202.18929      26.736123     -13061.117     -13034.381      14201.871      16604.795      14022.028      14289.198      14294.388    
       372   1.6524703      202.35018      26.757397     -13061.064     -13034.306      14218.87       16604.795      14043.55       14296.649      14316.411    
       373   1.6571379      202.67553      26.800419     -13061.032     -13034.232      14220.473      16604.795      14052.441      14282.989      14325.989    
       374   1.6620497      203.15963      26.864433     -13061.021     -13034.156      14213.979      16604.795      14052.931      14269.394      14319.613    
       375   1.6678228      203.79663      26.948666     -13061.029     -13034.08       14214.136      16604.795      14047.867      14271.592      14322.95     
       376   1.6722613      204.57846      27.05205      -13061.056     -13034.004      14175.81       16604.795      13990.453      14238.076      14298.9      
       377   1.6763518      205.49132      27.17276      -13061.1       -13033.927      14153.354      16604.795      13941.567      14212.599      14305.896    
       378   1.6808522      206.5289       27.309962     -13061.16      -13033.85       14108.377      16604.795      13875.197      14183.593      14266.341    
       379   1.6852697      207.68958      27.463443     -13061.235     -13033.772      14033.243      16604.795      13778.242      14119.216      14202.271    
       380   1.6897293      208.96956      27.632699     -13061.326     -13033.693      13949.983      16604.795      13691.897      14033.249      14124.803    
       381   1.6944834      210.35953      27.816499     -13061.43      -13033.614      13890.673      16604.795      13631.381      13961.876      14078.761    
       382   1.7004134      211.84963      28.013539     -13061.547     -13033.534      13835.408      16604.795      13570.958      13896.145      14039.122    
       383   1.7047046      213.43017      28.222539     -13061.676     -13033.453      13798.962      16604.795      13533.138      13845.84       14017.91     
       384   1.7089747      215.08741      28.441681     -13061.814     -13033.372      13770.328      16604.795      13502.76       13809.884      13998.341    
       385   1.7135084      216.8098       28.669438     -13061.96      -13033.29       13718.573      16604.795      13467.702      13753.258      13934.758    
       386   1.7177973      218.58397      28.904043     -13062.112     -13033.208      13679.715      16604.795      13433.027      13708.28       13897.837    
       387   1.7222804      220.39529      29.143559     -13062.268     -13033.125      13637.276      16604.795      13386.771      13659.773      13865.284    
       388   1.7265863      222.23919      29.387383     -13062.429     -13033.041      13589.25       16604.795      13354.992      13596.148      13816.612    
       389   1.7321067      224.1086       29.634581     -13062.592     -13032.957      13498.545      16604.795      13290.228      13491.703      13713.704    
       390   1.7374715      225.99097      29.883493     -13062.756     -13032.873      13399.437      16604.795      13216.582      13389.623      13592.107    
       391   1.7419896      227.87987      30.133268     -13062.921     -13032.787      13300.761      16604.795      13130.629      13292.487      13479.167    
       392   1.7466399      229.7702       30.383233     -13063.085     -13032.702      13270.07       16604.795      13110.97       13261.005      13438.235    
       393   1.7509655      231.64856      30.631614     -13063.248     -13032.616      13253.252      16604.795      13117.449      13248.237      13394.07     
       394   1.7555134      233.50153      30.876637     -13063.406     -13032.529      13202.288      16604.795      13085.753      13194.497      13326.614    
       395   1.7597242      235.32228      31.117401     -13063.56      -13032.443      13160.204      16604.795      13060.222      13158.723      13261.666    
       396   1.764997       237.10339      31.352923     -13063.709     -13032.356      13147.186      16604.795      13050.25       13154.077      13237.232    
       397   1.7704144      238.83989      31.582545     -13063.851     -13032.268      13126.574      16604.795      13033.558      13133.029      13213.136    
       398   1.7746823      240.52664      31.805589     -13063.986     -13032.181      13065.429      16604.795      12975.813      13066.09       13154.386    
       399   1.7793625      242.15544      32.020972     -13064.114     -13032.093      13052.901      16604.795      12974.321      13048.282      13136.1      
       400   1.7838855      243.71973      32.227823     -13064.232     -13032.005      13049.284      16604.795      12996.713      13045.989      13105.15     
       401   1.7884017      245.20846      32.424682     -13064.341     -13031.917      13038.344      16604.795      13015.765      13021.874      13077.392    
       402   1.7928768      246.60518      32.609374     -13064.438     -13031.828      13015.119      16604.795      12990.753      12990.143      13064.461    
       403   1.7984053      247.9042       32.781148     -13064.521     -13031.74       12928.252      16604.795      12916.532      12893.886      12974.338    
       404   1.8036313      249.10721      32.940226     -13064.592     -13031.652      12912.912      16604.795      12890.606      12878.083      12970.046    
       405   1.8077925      250.21771      33.08707      -13064.65      -13031.563      12859.462      16604.795      12841.722      12822.271      12914.393    
       406   1.8122698      251.23352      33.221394     -13064.697     -13031.475      12842.744      16604.795      12836.903      12797.923      12893.405    
       407   1.8164498      252.14022      33.341291     -13064.729     -13031.387      12921.284      16604.795      12951.318      12859.604      12952.93     
       408   1.8208364      252.92871      33.445555     -13064.745     -13031.299      12914.195      16604.795      12979.073      12834.62       12928.892    
       409   1.8255676      253.60526      33.535016     -13064.747     -13031.212      12892.29       16604.795      12987.561      12787.833      12901.476    
       410   1.8312882      254.1792       33.610911     -13064.735     -13031.124      12863.791      16604.795      12982.899      12704.75       12903.723    
       411   1.836385       254.64379      33.672345     -13064.709     -13031.037      12877.871      16604.795      13018.23       12696.351      12919.033    
       412   1.8406217      254.99104      33.718263     -13064.668     -13030.95       12880.66       16604.795      13042.763      12678.053      12921.163    
       413   1.8450259      255.23025      33.749895     -13064.613     -13030.863      12893.056      16604.795      13039.907      12693.039      12946.223    
       414   1.8492864      255.37466      33.76899      -13064.546     -13030.777      12905.387      16604.795      13060.15       12706.627      12949.384    
       415   1.8536651      255.42415      33.775535     -13064.466     -13030.691      12936.611      16604.795      13099.994      12746.13       12963.71     
       416   1.8586451      255.37829      33.76947      -13064.375     -13030.605      12969.15       16604.795      13120.945      12794.786      12991.718    
       417   1.8645966      255.24229      33.751487     -13064.271     -13030.52       13022.905      16604.795      13167.691      12861.49       13039.534    
       418   1.8692632      255.02349      33.722554     -13064.157     -13030.435      13058.329      16604.795      13202.723      12900.234      13072.029    
       419   1.8733962      254.72645      33.683276     -13064.033     -13030.35       13127.367      16604.795      13257.467      12970.4        13154.232    
       420   1.8775692      254.35413      33.634043     -13063.9       -13030.266      13187.563      16604.795      13302.08       13060.891      13199.717    
       421   1.8817289      253.91656      33.576181     -13063.758     -13030.182      13270.234      16604.795      13362.221      13168.548      13279.933    
       422   1.8862615      253.41996      33.510514     -13063.609     -13030.099      13293.948      16604.795      13400.377      13193.634      13287.832    
       423   1.8917569      252.86584      33.437241     -13063.453     -13030.016      13371.773      16604.795      13484.139      13263.645      13367.535    
       424   1.8978714      252.25742      33.356788     -13063.29      -13029.933      13451.371      16604.795      13574.08       13334.785      13445.247    
       425   1.9023713      251.59491      33.269182     -13063.12      -13029.851      13525.66       16604.795      13652.609      13412.112      13512.258    
       426   1.9066384      250.88405      33.175183     -13062.944     -13029.768      13628.632      16604.795      13760.59       13520.365      13604.942    
       427   1.9109768      250.1406       33.076874     -13062.764     -13029.687      13745.209      16604.795      13889.693      13627.535      13718.398    
       428   1.9154461      249.38223      32.976592     -13062.582     -13029.605      13838.044      16604.795      13974.134      13728.473      13811.527    
       429   1.9197238      248.63062      32.877205     -13062.401     -13029.524      13922.043      16604.795      14060.447      13799.024      13906.657    
       430   1.9247904      247.89714      32.780214     -13062.224     -13029.444      13995.146      16604.795      14127.509      13870.227      13987.702    
       431   1.9307876      247.18169      32.685608     -13062.049     -13029.363      14093.436      16604.795      14229.597      13949.101      14101.61     
       432   1.9351619      246.48958      32.594088     -13061.877     -13029.283      14213.018      16604.795      14362.983      14048.675      14227.397    
       433   1.9394434      245.82616      32.506362     -13061.709     -13029.203      14365.292      16604.795      14534.799      14197.047      14364.03     
       434   1.943827       245.20053      32.423633     -13061.546     -13029.123      14471.142      16604.795      14665.281      14291.192      14456.953    
       435   1.9485196      244.62979      32.348163     -13061.391     -13029.043      14575.767      16604.795      14814.932      14386.755      14525.613    
       436   1.9527378      244.12126      32.280918     -13061.245     -13028.964      14670.249      16604.795      14940.253      14476.043      14594.45     
       437   1.9584073      243.67592      32.222029     -13061.106     -13028.884      14767.241      16604.795      15045.68       14566.646      14689.397    
       438   1.9637554      243.29312      32.17141      -13060.976     -13028.805      14867.19       16604.795      15144.638      14651.984      14804.95     
       439   1.9681015      242.97424      32.129243     -13060.854     -13028.725      14940.825      16604.795      15205.949      14711.445      14905.08     
       440   1.9728896      242.72193      32.09588      -13060.742     -13028.646      14948.583      16604.795      15224.111      14705.91       14915.726    
       441   1.9772374      242.5407       32.071916     -13060.638     -13028.566      14977.001      16604.795      15253.151      14742.186      14935.667    
       442   1.9817167      242.43785      32.058315     -13060.545     -13028.487      15037.866      16604.795      15306.54       14812.373      14994.685    
       443   1.986552       242.41947      32.055885     -13060.463     -13028.407      15111.557      16604.795      15376.103      14889.389      15069.178    
       444   1.9924042      242.48967      32.065168     -13060.393     -13028.328      15150.622      16604.795      15429.273      14922.219      15100.375    
       445   1.9973902      242.65208      32.086644     -13060.334     -13028.248      15145.536      16604.795      15417.732      14944.512      15074.364    
       446   2.0014646      242.91435      32.121325     -13060.289     -13028.168      15135.936      16604.795      15398.011      14959.504      15050.294    
       447   2.0056056      243.28046      32.169736     -13060.258     -13028.088      15117.452      16604.795      15353.466      14976.805      15022.083    
       448   2.0097323      243.74671      32.23139      -13060.239     -13028.008      15129.218      16604.795      15360.154      15011.816      15015.683    
       449   2.0141477      244.31626      32.306703     -13060.234     -13027.927      15144.225      16604.795      15373.452      15046.118      15013.105    
       450   2.0190406      244.99346      32.396251     -13060.243     -13027.847      15180.447      16604.795      15404.142      15108.705      15028.493    
       451   2.0249953      245.77844      32.500052     -13060.266     -13027.766      15170.13       16604.795      15374.338      15127.55       15008.502    
       452   2.0298331      246.66932      32.617856     -13060.303     -13027.685      15164.364      16604.795      15373.322      15142.399      14977.372    
       453   2.0341073      247.65445      32.748123     -13060.351     -13027.603      15151.354      16604.795      15342.221      15146.918      14964.923    
       454   2.0387825      248.72381      32.889528     -13060.411     -13027.522      15121.254      16604.795      15280.704      15141.851      14941.209    
       455   2.0431702      249.87777      33.04212      -13060.481     -13027.439      15102.865      16604.795      15242.863      15150.421      14915.311    
       456   2.0474648      251.11391      33.205578     -13060.563     -13027.357      15085.935      16604.795      15200.065      15137.658      14920.082    
       457   2.0524697      252.42054      33.378358     -13060.653     -13027.275      15067.492      16604.795      15159.486      15120.285      14922.706    
       458   2.0585489      253.7907       33.559538     -13060.751     -13027.192      14983.119      16604.795      15086.456      15019.375      14843.525    
       459   2.0628079      255.2173       33.748182     -13060.857     -13027.108      14933.403      16604.795      15040.428      14950.19       14809.59     
       460   2.0669606      256.69523      33.943613     -13060.969     -13027.025      14874.673      16604.795      14981.551      14877.742      14764.725    
       461   2.0714152      258.22103      34.145375     -13061.087     -13026.941      14846.395      16604.795      14958.584      14850.4        14730.2      
       462   2.0761575      259.78008      34.351532     -13061.209     -13026.857      14795.776      16604.795      14895.862      14799.224      14692.241    
       463   2.0806276      261.35864      34.56027      -13061.333     -13026.773      14705.42       16604.795      14831.709      14701.27       14583.283    
       464   2.0860601      262.95821      34.771787     -13061.46      -13026.689      14637.727      16604.795      14778.357      14621.213      14513.61     
       465   2.0915089      264.5747       34.98554      -13061.59      -13026.604      14569.062      16604.795      14722.052      14547.601      14437.534    
       466   2.0958061      266.19705      35.200069     -13061.719     -13026.519      14541.541      16604.795      14694.548      14527.667      14402.407    
       467   2.1001126      267.81652      35.414216     -13061.848     -13026.434      14487.435      16604.795      14656.391      14467.205      14338.709    
       468   2.1041688      269.42063      35.626333     -13061.976     -13026.349      14399.668      16604.795      14568.683      14367.382      14262.94     
       469   2.1085875      271.00048      35.835241     -13062.099     -13026.264      14372.334      16604.795      14531.123      14327.815      14258.064    
       470   2.1128469      272.54718      36.039766     -13062.219     -13026.179      14365.907      16604.795      14504.481      14302.547      14290.693    
       471   2.1184051      274.05134      36.238667     -13062.333     -13026.094      14348.172      16604.795      14468.655      14274.11       14301.752    
       472   2.1241354      275.50527      36.430923     -13062.44      -13026.009      14319.336      16604.795      14425.744      14249.914      14282.351    
       473   2.1286764      276.89867      36.615177     -13062.539     -13025.924      14269.748      16604.795      14362.66       14201.836      14244.747    
       474   2.1332747      278.22036      36.789949     -13062.629     -13025.839      14216.568      16604.795      14291.401      14150.724      14207.58     
       475   2.1375455      279.46149      36.954067     -13062.709     -13025.755      14143.074      16604.795      14172.211      14091.317      14165.694    
       476   2.1419262      280.61784      37.106974     -13062.777     -13025.67       14120.196      16604.795      14102.559      14103.196      14154.832    
       477   2.1465433      281.67688      37.247015     -13062.833     -13025.586      14103.604      16604.795      14072.989      14099.88       14137.943    
       478   2.1518964      282.62323      37.372153     -13062.874     -13025.502      14114.347      16604.795      14070.304      14127.826      14144.911    
       479   2.1568498      283.45278      37.481848     -13062.9       -13025.418      14211.499      16604.795      14155.059      14226.868      14252.569    
[...]
       894   4.2058048      321.49622      42.512451     -13056.064     -13013.552      17446.254      16604.795      17447.397      17099.426      17791.94     
       895   4.2104884      322.10761      42.593296     -13056.179     -13013.586      17394.484      16604.795      17428.261      17014.824      17740.366    
       896   4.2147191      322.66867      42.667488     -13056.288     -13013.62       17368.074      16604.795      17420.764      16955.018      17728.44     
       897   4.219159       323.17966      42.735057     -13056.391     -13013.656      17347.104      16604.795      17404.365      16923.743      17713.204    
       898   4.2234063      323.63675      42.795499     -13056.487     -13013.692      17315.473      16604.795      17374.691      16892.98       17678.747    
       899   4.2277447      324.03454      42.848101     -13056.576     -13013.728      17249.349      16604.795      17313.321      16819.783      17614.944    
       900   4.2325934      324.37601      42.893254     -13056.659     -13013.766      17192.313      16604.795      17283.083      16734.122      17559.735    
       901   4.2384618      324.66152      42.931009     -13056.735     -13013.804      17184.342      16604.795      17294.427      16714.084      17544.516    
       902   4.243236       324.88938      42.961139     -13056.804     -13013.842      17154.998      16604.795      17281.452      16682.895      17500.647    
       903   4.2474478      325.05949      42.983633     -13056.865     -13013.882      17157.391      16604.795      17277.377      16690.951      17503.845    
       904   4.2518747      325.17517      42.99893      -13056.921     -13013.922      17148.551      16604.795      17235.626      16695.578      17514.447    
       905   4.2562526      325.24121      43.007663     -13056.97      -13013.962      17179.178      16604.795      17250.007      16757.297      17530.232    
       906   4.2610047      325.24778      43.008531     -13057.013     -13014.004      17239.85       16604.795      17313.536      16831.385      17574.629    
       907   4.2661938      325.19073      43.000987     -13057.047     -13014.046      17271.272      16604.795      17356.43       16836.083      17621.303    
       908   4.2722375      325.07564      42.985769     -13057.074     -13014.088      17378.566      16604.795      17442.652      16946.637      17746.408    
       909   4.2768032      324.90834      42.963646     -13057.095     -13014.132      17452.991      16604.795      17528.956      16998.401      17831.615    
       910   4.2814836      324.69655      42.93564      -13057.111     -13014.175      17485.091      16604.795      17555.89       17025.598      17873.784    
       911   4.2860618      324.44711      42.902656     -13057.123     -13014.22       17486.654      16604.795      17550.022      17045.019      17864.92     
       912   4.2905866      324.16131      42.864864     -13057.13      -13014.265      17472.204      16604.795      17536.429      17042.219      17837.964    
       913   4.2954676      323.83528      42.821753     -13057.133     -13014.311      17488.923      16604.795      17554.445      17073.956      17838.368    
       914   4.3028371      323.47014      42.773469     -13057.13      -13014.357      17499.38       16604.795      17585.385      17084.726      17828.029    
       915   4.3081758      323.07081      42.720664     -13057.124     -13014.404      17535.511      16604.795      17642.597      17125.856      17838.08     
       916   4.3131883      322.64213      42.663978     -13057.115     -13014.451      17465.616      16604.795      17592.822      17055.633      17748.394    
       917   4.3174943      322.18142      42.603056     -13057.101     -13014.498      17489.701      16604.795      17633.038      17081.902      17754.162    
       918   4.3220923      321.69064      42.53816      -13057.084     -13014.546      17484.206      16604.795      17635.299      17079.108      17738.212    
       919   4.3274159      321.17901      42.470505     -13057.065     -13014.595      17454.369      16604.795      17610.026      17054.941      17698.139    
       920   4.3344083      320.64599      42.400022     -13057.043     -13014.643      17399.992      16604.795      17567.482      17001.04       17631.453    
       921   4.340489       320.08698      42.326102     -13057.018     -13014.692      17398.58       16604.795      17598.334      16994.26       17603.146    
       922   4.3461038      319.50773      42.249506     -13056.991     -13014.742      17375.802      16604.795      17599.842      16979.512      17548.052    
       923   4.3515845      318.90844      42.17026      -13056.962     -13014.792      17373.362      16604.795      17584.272      17000.964      17534.851    
       924   4.3557905      318.28773      42.088182     -13056.93      -13014.842      17355.027      16604.795      17563.993      16983.248      17517.84     
       925   4.3614141      317.64712      42.003472     -13056.895     -13014.892      17348.84       16604.795      17547.566      16985.24       17513.714    
       926   4.3671054      316.98946      41.916509     -13056.859     -13014.943      17333.408      16604.795      17525.265      17009.574      17465.386    
       927   4.3715512      316.32296      41.828374     -13056.821     -13014.993      17296.106      16604.795      17472.646      17012.681      17402.99     
       928   4.3763823      315.65263      41.739735     -13056.784     -13015.044      17266.572      16604.795      17432.148      17010.852      17356.716    
       929   4.3807708      314.98043      41.650847     -13056.746     -13015.095      17237.223      16604.795      17415.205      16997.172      17299.292    
       930   4.3854205      314.30453      41.561471     -13056.707     -13015.146      17245.613      16604.795      17443.504      17012.649      17280.685    
       931   4.3901175      313.62417      41.471505     -13056.669     -13015.197      17238.902      16604.795      17422.362      17036.781      17257.563    
       932   4.3963957      312.94738      41.38201      -13056.63      -13015.248      17240.11       16604.795      17419.852      17056.375      17244.105    
       933   4.4011408      312.27791      41.293485     -13056.593     -13015.3        17211.428      16604.795      17379.278      17049.773      17205.232    
       934   4.4053573      311.61252      41.205498     -13056.557     -13015.351      17194.494      16604.795      17342.228      17050.972      17190.283    
       935   4.4098313      310.9525       41.118222     -13056.521     -13015.403      17218.547      16604.795      17355.443      17091.942      17208.258    
       936   4.4140537      310.29541      41.031333     -13056.485     -13015.454      17205.37       16604.795      17279.43       17118.857      17217.822    
       937   4.4184428      309.63548      40.944068     -13056.45      -13015.505      17220.761      16604.795      17244.11       17155.091      17263.081    
       938   4.4234879      308.97692      40.856985     -13056.414     -13015.557      17258.778      16604.795      17275.028      17180.85       17320.455    
       939   4.4295472      308.33023      40.771471     -13056.38      -13015.608      17304.119      16604.795      17315.73       17228.507      17368.121    
       940   4.4338283      307.69538      40.687523     -13056.347     -13015.659      17359.116      16604.795      17361.097      17276.203      17440.049    
       941   4.4380488      307.06449      40.604098     -13056.315     -13015.711      17414.202      16604.795      17403.801      17350.878      17487.925    
       942   4.4424142      306.4284       40.519986     -13056.282     -13015.762      17389.343      16604.795      17341.162      17346.417      17480.449    
       943   4.4467604      305.78602      40.435042     -13056.248     -13015.813      17348.437      16604.795      17276.653      17316.836      17451.821    
       944   4.4519627      305.14424      40.350178     -13056.214     -13015.864      17322.907      16604.795      17246.204      17312.291      17410.226    
       945   4.4573659      304.50871      40.26614      -13056.18      -13015.914      17310.151      16604.795      17222.418      17302.374      17405.661    
       946   4.4631486      303.87781      40.182714     -13056.147     -13015.965      17294.932      16604.795      17228.236      17288.678      17367.883    
       947   4.4674184      303.24639      40.099219     -13056.114     -13016.015      17249.81       16604.795      17193.882      17237.946      17317.601    
       948   4.4719513      302.61151      40.015267     -13056.08      -13016.065      17257.204      16604.795      17218.106      17231.12       17322.387    
       949   4.4764557      301.96924      39.930337     -13056.045     -13016.115      17312.562      16604.795      17262.682      17279.4        17395.605    
       950   4.4808847      301.31059      39.843243     -13056.008     -13016.164      17318.043      16604.795      17271.739      17263.496      17418.893    
       951   4.4854982      300.63642      39.754094     -13055.968     -13016.214      17281.138      16604.795      17227.115      17216.354      17399.944    
       952   4.4910135      299.95246      39.663653     -13055.927     -13016.263      17225.841      16604.795      17146.367      17161.729      17369.425    
       953   4.4976472      299.26693      39.573002     -13055.885     -13016.312      17146.701      16604.795      17041.346      17087.808      17310.948    
       954   4.5020517      298.58764      39.483178     -13055.843     -13016.36       17084.96       16604.795      16964.306      17014.437      17276.138    
       955   4.5066558      297.91108      39.393714     -13055.802     -13016.408      17055.072      16604.795      16914.111      16981.765      17269.342    
       956   4.5112108      297.23183      39.303895     -13055.76      -13016.456      17055.4        16604.795      16896.812      16981.698      17287.692    
       957   4.5156153      296.54624      39.213237     -13055.717     -13016.503      17081.17       16604.795      16926.544      17014.078      17302.886    
       958   4.5208843      295.85378      39.121671     -13055.672     -13016.551      17094.203      16604.795      16935.867      17026.299      17320.442    
       959   4.5266321      295.16195      39.030189     -13055.627     -13016.597      17107.596      16604.795      16954.146      17042.443      17326.198    
       960   4.5309151      294.48005      38.940019     -13055.583     -13016.643      17112.017      16604.795      16965.742      17063.596      17306.712    
       961   4.535308       293.80378      38.850592     -13055.54      -13016.689      17085.634      16604.795      16946.396      17049.912      17260.594    
       962   4.5395425      293.12185      38.760419     -13055.495     -13016.735      17089.412      16604.795      16954.931      17055.072      17258.234    
       963   4.5440577      292.43413      38.66948      -13055.449     -13016.779      17103.487      16604.795      16984.029      17046.425      17280.006    
       964   4.5482807      291.75046      38.579077     -13055.403     -13016.824      17100.976      16604.795      16998.273      17014.209      17290.446    
       965   4.5537856      291.07578      38.489861     -13055.358     -13016.868      17124.264      16604.795      17046.615      17023.478      17302.698    
       966   4.5590357      290.40472      38.401124     -13055.313     -13016.912      17161.335      16604.795      17114.645      17045.419      17323.942    
       967   4.5636193      289.73381      38.312408     -13055.267     -13016.955      17161.403      16604.795      17120.883      17043.499      17319.827    
       968   4.568327       289.05908      38.223186     -13055.221     -13016.998      17155.828      16604.795      17133.964      17010.6        17322.919    
       969   4.5727214      288.38164      38.133607     -13055.173     -13017.039      17154.054      16604.795      17148.059      16979.424      17334.678    
       970   4.577304       287.70691      38.044385     -13055.126     -13017.081      17151.905      16604.795      17156.746      16957.189      17341.779    
       971   4.5819817      287.0312       37.955033     -13055.077     -13017.122      17119.652      16604.795      17129.431      16928.156      17301.37     
       972   4.5880109      286.35411      37.8655       -13055.028     -13017.163      17093.128      16604.795      17089.158      16902.607      17287.619    
       973   4.5931333      285.68149      37.776557     -13054.979     -13017.202      17057.213      16604.795      17069.29       16853.793      17248.557    
       974   4.597677       285.01643      37.688615     -13054.93      -13017.242      17063.264      16604.795      17073.643      16869.112      17247.038    
       975   4.6020661      284.3645       37.602408     -13054.883     -13017.28       17082.921      16604.795      17091.719      16911.75       17245.294    
       976   4.6063342      283.73345      37.518961     -13054.838     -13017.319      17093.139      16604.795      17099.641      16928.643      17251.133    
       977   4.610686       283.12688      37.438753     -13054.795     -13017.356      17150.619      16604.795      17161.004      16969.437      17321.417    
       978   4.6157603      282.54701      37.362075     -13054.756     -13017.394      17182.541      16604.795      17203.445      17004.661      17339.516    
       979   4.6218126      281.99088      37.288537     -13054.718     -13017.43       17182.992      16604.795      17205.885      17017.038      17326.052    
       980   4.6262625      281.45569      37.217766     -13054.683     -13017.465      17161.719      16604.795      17184.93       17001.018      17299.209    
       981   4.6305799      280.94954      37.150837     -13054.652     -13017.501      17155.818      16604.795      17194.904      16997.507      17275.044    
       982   4.6350481      280.46997      37.087422     -13054.623     -13017.535      17145.732      16604.795      17205.148      16968.817      17263.232    
       983   4.6394561      280.00929      37.026505     -13054.596     -13017.569      17144.882      16604.795      17238.665      16957.783      17238.197    
       984   4.6434995      279.57641      36.969263     -13054.572     -13017.602      17132.165      16604.795      17254.129      16936.847      17205.518    
       985   4.6483632      279.18329      36.91728      -13054.552     -13017.635      17148.616      16604.795      17282.291      16942.421      17221.137    
       986   4.6543203      278.83356      36.871034     -13054.538     -13017.667      17121.766      16604.795      17266.249      16911.378      17187.671    
       987   4.6587773      278.52495      36.830226     -13054.529     -13017.699      17111.549      16604.795      17284.233      16878.952      17171.461    
       988   4.6633982      278.25455      36.794469     -13054.524     -13017.73       17135.806      16604.795      17330.589      16884.239      17192.59     
       989   4.6678069      278.0247       36.764076     -13054.524     -13017.76       17227.797      16604.795      17430.068      16974.282      17279.042    
       990   4.6723675      277.84301      36.740051     -13054.529     -13017.789      17330.109      16604.795      17519.423      17084.952      17385.953    
       991   4.6768967      277.71568      36.723214     -13054.541     -13017.818      17369.219      16604.795      17563.749      17122.42       17421.487    
       992   4.6823773      277.64683      36.714109     -13054.561     -13017.847      17403.142      16604.795      17607.195      17154.541      17447.691    
       993   4.6878446      277.62786      36.7116       -13054.586     -13017.875      17466.728      16604.795      17682.46       17218.939      17498.786    
       994   4.6923764      277.65878      36.715689     -13054.617     -13017.901      17529.489      16604.795      17777.469      17285.101      17525.897    
       995   4.6972201      277.75078      36.727855     -13054.656     -13017.928      17589.684      16604.795      17876.3        17331.593      17561.16     
       996   4.7014525      277.90243      36.747908     -13054.702     -13017.954      17601.529      16604.795      17902.806      17319.397      17582.385    
       997   4.7058285      278.10792      36.77508      -13054.755     -13017.98       17566.999      16604.795      17891.058      17249.687      17560.253    
       998   4.7104436      278.36447      36.809005     -13054.814     -13018.005      17554.314      16604.795      17893.149      17218.684      17551.107    
       999   4.7159435      278.6767       36.850292     -13054.88      -13018.029      17553.666      16604.795      17896.629      17234.953      17529.417    
      1000   4.7209657      279.04695      36.899251     -13054.953     -13018.054      17543.776      16604.795      17885.837      17245.473      17500.017    
Loop time of 4.72101 on 16 procs for 1000 steps with 1024 atoms

Performance: 18.301 ns/day, 1.311 hours/ns, 211.819 timesteps/s
99.3% CPU use with 16 MPI tasks x 1 OpenMP threads

MPI task timing breakdown:
Section |  min time  |  avg time  |  max time  |%varavg| %total
---------------------------------------------------------------
Pair    | 3.9859     | 4.0438     | 4.1425     |   2.0 | 85.65
Neigh   | 0          | 0          | 0          |   0.0 |  0.00
Comm    | 0.15643    | 0.25358    | 0.31006    |   7.7 |  5.37
Output  | 0.37429    | 0.37633    | 0.40264    |   1.1 |  7.97
Modify  | 0.014206   | 0.015965   | 0.017841   |   1.1 |  0.34
Other   |            | 0.03139    |            |       |  0.66

Nlocal:             64 ave          64 max          64 min
Histogram: 16 0 0 0 0 0 0 0 0 0
Nghost:            887 ave         887 max         887 min
Histogram: 16 0 0 0 0 0 0 0 0 0
Neighs:              0 ave           0 max           0 min
Histogram: 16 0 0 0 0 0 0 0 0 0
FullNghs:         5632 ave        5632 max        5632 min
Histogram: 16 0 0 0 0 0 0 0 0 0

Total # of neighbors = 90112
Ave neighs/atom = 88
Neighbor list builds = 0
Dangerous builds = 0


--------------------------------------------------------------------------

                               FLOPs Report

--------------------------------------------------------------------------
         alloc:     0.0000 GFlops,       0.0001 secs,       0.0000 GFLOP/s
         setup:     0.0000 GFlops,       0.2419 secs,       0.0000 GFLOP/s
   fnn->interp:     3.4243 GFlops,       0.7825 secs,       4.3762 GFLOP/s
             P:     7.2090 GFlops,       0.4626 secs,      15.5821 GFLOP/s
             Q:     0.4506 GFlops,       0.0832 secs,       5.4123 GFLOP/s
             G:     0.0020 GFlops,       0.0117 secs,       0.1754 GFLOP/s
   nn->compute:    12.7224 GFlops,       0.4828 secs,      26.3538 GFLOP/s
          dEdP:     0.4547 GFlops,       0.1159 secs,       3.9214 GFLOP/s
            UV:    14.4179 GFlops,       1.0253 secs,      14.0627 GFLOP/s
            F1:     0.3773 GFlops,       0.3744 secs,       1.0078 GFLOP/s
            F2:     0.2422 GFlops,       0.3932 secs,       0.6158 GFLOP/s
        forces:     0.0676 GFlops,       0.0437 secs,       1.5474 GFLOP/s
--------------------------------------------------------------------------
       Overall:    39.3679 GFlops,       4.0174 secs,       9.7994 GFLOP/s
--------------------------------------------------------------------------

Total wall time: 0:00:04
