LAMMPS (4 May 2022)
  using 1 OpenMP thread(s) per MPI task
variable                    T equal 300
variable                    R equal 984523

units		                metal
dimension                   3
boundary	                p p p
atom_style	                atomic

lattice                     bcc 3.189
Lattice spacing in x,y,z = 3.189 3.189 3.189
region                      box block 0 30 0 30 0 30
create_box                  1 box
Created orthogonal box = (0 0 0) to (95.67 95.67 95.67)
  3 by 4 by 4 MPI processor grid
create_atoms                1 box
Created 54000 atoms
  using lattice units in orthogonal box = (0 0 0) to (95.67 95.67 95.67)
  create_atoms CPU = 0.014 seconds

pair_style	                tensormd
pair_coeff	                * * ../../W_k32_snapshot.npz W interp 0.01 1
Use interpolation: dr = 0.0100, algo = batch

mass                        1 183.8

neighbor                    1.0 bin
neigh_modify                every 1 delay 0 check yes

thermo                      20
thermo_style                custom step cpu temp ke pe etotal press vol pxx pyy pzz

velocity                    all create $T $R dist gaussian
velocity                    all create 300 $R dist gaussian
velocity                    all create 300 984523 dist gaussian
fix                         1 all nvt temp $T $T 0.1
fix                         1 all nvt temp 300 $T 0.1
fix                         1 all nvt temp 300 300 0.1
# dump                        1 all custom 1 dump.fnn id type x y z fx fy fz

run                         1000
Neighbor list info ...
  update every 1 steps, delay 0 steps, check yes
  max neighbors/atom: 2000, page size: 100000
  master list distance cutoff = 7
  ghost atom cutoff = 7
  binsize = 3.5, bins = 28 28 28
  1 neighbor lists, perpetual/occasional/extra = 1 0 0
  (1) pair tensormd, perpetual
      attributes: full, newton on
      pair build: full/bin/atomonly
      stencil: full/bin/3d
      bin: standard
Per MPI rank memory allocation (min/avg/max) = 134.1 | 134.7 | 135.2 Mbytes
   Step          CPU            Temp          KinEng         PotEng         TotEng         Press          Volume          Pxx            Pyy            Pzz      
         0   0              300            2093.9756     -690382.9      -688288.93      1649.9637      875643.49      1660.9557      1636.8877      1652.0477    
        20   2.1437317      210.82741      1471.5582     -689756.79     -688285.23      5618.3468      875643.49      5633.2447      5608.2974      5613.4982    
        40   4.2853317      63.70036       444.62332     -688717.21     -688272.59      11808.651      875643.49      11831.649      11804.206      11790.098    
        60   6.4235935      46.610098      325.33469     -688591.23     -688265.9       11963          875643.49      11985          11961.449      11942.551    
        80   8.5645838      149.44172      1043.091      -689291.45     -688248.35      7296.1979      875643.49      7307.5582      7292.8559      7288.1795    
       100   10.704401      216.63826      1512.1174     -689728.64     -688216.52      4995.6232      875643.49      5002.8269      4988.7313      4995.3116    
       120   12.845539      192.38554      1342.8354     -689526.76     -688183.92      7036.538       875643.49      7049.1447      7030.1369      7030.3323    
       140   14.985495      151.21874      1055.4945     -689209.81     -688154.31      9181.7367      875643.49      9195.8595      9176.9574      9172.3931    
       160   17.123429      146.45944      1022.2749     -689148.23     -688125.96      9121.2138      875643.49      9124.6817      9116.4007      9122.5592    
       180   19.263335      151.70441      1058.8844     -689154.9      -688096.02      8774.5259      875643.49      8762.724       8771.2076      8789.646     
       200   21.401153      150.75987      1052.2916     -689117.5      -688065.21      9219.3846      875643.49      9201.673       9218.3932      9238.0878    
       220   23.540296      169.75889      1184.9032     -689217.5      -688032.59      8913.2315      875643.49      8904.5902      8913.1238      8921.9804    
       240   25.676928      200.98132      1402.8333     -689398.55     -687995.72      7765.3532      875643.49      7771.6768      7765.776       7758.6067    
       260   27.815533      195.11154      1361.8626     -689319.5      -687957.64      8090.4148      875643.49      8104.4636      8089.7773      8077.0037    
       280   29.95253       155.31183      1084.0639     -689006.74     -687922.68      10086.63       875643.49      10095.339      10079.849      10084.702    
       300   32.093189      146.56161      1022.9881     -688913.51     -687890.52      10864.698      875643.49      10860.935      10855.473      10877.685    
       320   34.232495      187.84723      1311.1584     -689165.41     -687854.25      9374.1705      875643.49      9361.3624      9371.8174      9389.3317    
       340   36.370155      215.44272      1503.7727     -689316.67     -687812.9       8329.2838      875643.49      8316.4626      8334.3439      8337.0449    
       360   38.51099       191.67892      1337.9033     -689110.79     -687772.89      9579.7677      875643.49      9577.8851      9583.1291      9578.289     
       380   40.65285       165.94774      1158.3017     -688894.13     -687735.83      11023.615      875643.49      11035.476      11015.812      11019.557    
       400   42.79439       184.73947      1289.4665     -688987.22     -687697.76      10571.474      875643.49      10588.257      10556.441      10569.724    
       420   44.930078      215.44042      1503.7566     -689159.16     -687655.4       9543.3152      875643.49      9549.3587      9539.4313      9541.1557    
       440   47.068645      210.38416      1468.4643     -689081.24     -687612.78      10014.608      875643.49      10007.145      10028.01       10008.67     
       460   49.202607      187.67815      1309.9782     -688882.3      -687572.33      11257.727      875643.49      11254.722      11270.885      11247.572    
       480   51.342742      191.12089      1334.0083     -688865.93     -687531.92      11401.829      875643.49      11418.594      11400.959      11385.934    
       500   53.482869      214.67532      1498.4163     -688987.18     -687488.76      10691.808      875643.49      10727.974      10680.439      10667.012    
       520   55.620426      222.83648      1555.3805     -688999.87     -687444.49      10646.165      875643.49      10678.697      10641.506      10618.293    
       540   57.763984      213.92692      1493.1925     -688894.48     -687401.29      11367.464      875643.49      11373.743      11381.576      11347.073    
       560   59.90243       212.25494      1481.5222     -688839.76     -687358.24      11800.918      875643.49      11794.061      11818.825      11789.868    
       580   62.041789      220.66351      1540.2133     -688854.34     -687314.13      11749.935      875643.49      11758.634      11752.612      11738.559    
       600   64.179356      223.6015       1560.7202     -688830.34     -687269.62      11852.205      875643.49      11887.092      11842.127      11827.397    
       620   66.319853      222.28226      1551.5121     -688776.91     -687225.4       12174.118      875643.49      12220.407      12166.486      12135.46     
       640   68.461854      229.53473      1602.1338     -688782.83     -687180.7       12261.109      875643.49      12295.118      12269.336      12218.872    
       660   70.599894      240.93451      1681.7033     -688817.01     -687135.31      12183.528      875643.49      12201.1        12207.748      12141.737    
       680   72.737764      242.04601      1689.4614     -688779.94     -687090.47      12403.406      875643.49      12420.064      12427.125      12363.028    
       700   74.877613      235.25341      1642.0496     -688688.52     -687046.47      12899.939      875643.49      12925.08       12909.629      12865.107    
       720   77.016856      235.17257      1641.4854     -688643.61     -687002.13      13236.211      875643.49      13259.745      13235.451      13213.437    
       740   79.157109      244.69868      1707.9769     -688664.85     -686956.88      13248.482      875643.49      13260.28       13247.967      13237.199    
       760   81.298315      253.50764      1769.4627     -688681.1      -686911.63      13173.552      875643.49      13171.91       13177.352      13171.395    
       780   83.435684      256.42569      1789.8304     -688657.23     -686867.4       13250.171      875643.49      13241.486      13261.215      13247.811    
       800   85.573153      257.53881      1797.5999     -688621.53     -686823.93      13509.872      875643.49      13506.375      13532.894      13490.346    
       820   87.722239      258.56212      1804.7425     -688585.51     -686780.77      13901.148      875643.49      13902.798      13927.328      13873.318    
       840   89.863428      258.32406      1803.0809     -688540.89     -686737.81      14256.904      875643.49      14254.195      14270.04       14246.476    
       860   92.00381       260.7543       1820.0438     -688514.86     -686694.82      14340.627      875643.49      14338.905      14337.55       14345.425    
       880   94.245534      269.34716      1880.0212     -688531.82     -686651.8       14207.768      875643.49      14210.245      14206.748      14206.31     
       900   96.486144      277.78656      1938.9276     -688548.84     -686609.91      14234.361      875643.49      14231.621      14255.663      14215.798    
       920   98.627425      277.81454      1939.1229     -688509.46     -686570.34      14596.086      875643.49      14587.995      14626.307      14573.955    
       940   100.86581      273.40441      1908.3405     -688440.47     -686532.13      14984.204      875643.49      14982.398      14989.9        14980.313    
       960   103.1043       274.67959      1917.2412     -688410.69     -686493.45      15105.396      875643.49      15114.417      15081.831      15119.94     
       980   105.34532      281.72325      1966.4054     -688420.84     -686454.43      15112.613      875643.49      15121.27       15090.956      15125.612    
      1000   107.50400      286.48083      1999.6129     -688416.44     -686416.82      15253.047      875643.49      15247.907      15260.812      15250.423    
Loop time of 107.511 on 48 procs for 1000 steps with 54000 atoms

Performance: 0.804 ns/day, 29.864 hours/ns, 9.301 timesteps/s
99.3% CPU use with 48 MPI tasks x 1 OpenMP threads

MPI task timing breakdown:
Section |  min time  |  avg time  |  max time  |%varavg| %total
---------------------------------------------------------------
Pair    | 103.9      | 106.11     | 106.95     |   5.5 | 98.70
Neigh   | 0          | 0          | 0          |   0.0 |  0.00
Comm    | 0.33493    | 1.1958     | 2.9284     |  51.6 |  1.12
Output  | 0.0032959  | 0.0034438  | 0.0047781  |   0.3 |  0.00
Modify  | 0.063819   | 0.14323    | 0.23376    |  14.4 |  0.13
Other   |            | 0.03462    |            |       |  0.03

Nlocal:           1125 ave        1130 max        1120 min
Histogram: 24 0 0 0 0 0 0 0 0 24
Nghost:           3051 ave        3056 max        3046 min
Histogram: 24 0 0 0 0 0 0 0 0 24
Neighs:              0 ave           0 max           0 min
Histogram: 48 0 0 0 0 0 0 0 0 0
FullNghs:        99000 ave       99440 max       98560 min
Histogram: 24 0 0 0 0 0 0 0 0 24

Total # of neighbors = 4752000
Ave neighs/atom = 88
Neighbor list builds = 0
Dangerous builds = 0


--------------------------------------------------------------------------

                               FLOPs Report

--------------------------------------------------------------------------
         alloc:     0.0000 GFlops,       0.0002 secs,       0.0000 GFLOP/s
         setup:     0.0000 GFlops,       8.4244 secs,       0.0000 GFLOP/s
   fnn->interp:    60.1920 GFlops,      22.0026 secs,       2.7357 GFLOP/s
             P:   126.7200 GFlops,      11.1807 secs,      11.3338 GFLOP/s
             Q:     7.9200 GFlops,       1.9977 secs,       3.9646 GFLOP/s
             G:     0.0360 GFlops,       0.3451 secs,       0.1043 GFLOP/s
   nn->compute:   223.6354 GFlops,      11.2042 secs,      19.9600 GFLOP/s
          dEdP:     7.9920 GFlops,       6.2536 secs,       1.2780 GFLOP/s
            UV:   253.4400 GFlops,      28.5922 secs,       8.8639 GFLOP/s
            F1:     6.6330 GFlops,       8.2425 secs,       0.8047 GFLOP/s
            F2:     4.2570 GFlops,       5.9615 secs,       0.7141 GFLOP/s
        forces:     1.1880 GFlops,       0.8741 secs,       1.3591 GFLOP/s
--------------------------------------------------------------------------
       Overall:   692.0134 GFlops,     105.0588 secs,       6.5869 GFLOP/s
--------------------------------------------------------------------------

Total wall time: 0:01:48
