ITEM: TIMESTEP
20
ITEM: NUMBER OF ATOMS
8192
ITEM: BOX BOUNDS pp pp pp
0.0000000000000000e+00 5.1024000000000001e+01
0.0000000000000000e+00 5.1024000000000001e+01
0.0000000000000000e+00 5.1024000000000001e+01
ITEM: ATOMS id type x y z fx fy fz
145 1     0.01324168005490     3.19754090299613     3.22029237668984    -0.30925362381899    -0.15209304672976    -0.20301648472999
2 1     1.62055679985850     1.61229236292954     1.59383088370509    -0.32421392335127    -0.14733055586165    -0.22212902113109
131 1     3.19350053791745     0.01007555377245     3.18716331327160     0.11585835306043    -0.04726655029049    -0.21361142697419
147 1     3.17959399866195     3.17866009187470     3.19502487576819     0.32724422491231     0.12698207424159    -0.34412966566587
4 1     4.81414883642282     1.58283532692864     1.59419385280824    -0.16217336563502     0.35371983236831    -0.01011341509358
149 1     6.35388334853870     3.19164989224387     3.19504996081574     0.47832926001763    -0.00000362639030    -0.24748714761336
5 1     6.41788763073548     0.00495761396092     0.03771388250469    -0.59593240561819    -0.02440637855654    -0.57430761759652
6 1     8.02653892598872     1.59486010465684     1.62991587667467    -0.88236218316293     0.06417723284455    -0.41580891817039
151 1     9.59616261556207     3.19584635698202     3.15162747983140    -0.56844744813967     0.02978318654099     0.59395733022683
23 1     9.58145826610903     3.19662375965477     0.03240162017121     0.09861442002095    -0.01687639873268    -0.37361218287498
8 1    11.16712193974031     1.59430735541224     1.62525525743159     0.07327545982938    -0.07452948801534    -0.76229121806332
137 1    12.77233055927973     0.01796728443745     3.17365498047514    -0.40124486603633    -0.27767790718153     0.35818293099446
153 1    12.76365381922664     3.20999207080724     3.20109775033680    -0.04663351637506    -0.46217345482122    -0.15581397175380
9 1    12.73023455659547     0.00342783117869     0.00162013344484     0.11385549058631     0.00209570497751    -0.22599909805052
10 1    14.31781144311311     1.58820696565328     1.57911386549613     0.56038308285473     0.15293326497698     0.09063855561526
155 1    15.94775403650879     3.16417942364370     3.15271188187059    -0.14823145676799     0.19991633685200     0.49755721655950
12 1    17.54827601015645     1.59447885465438     1.61320690851534    -0.21105695471402    -0.24383834637030    -0.56099203669108
157 1    19.13771132911229     3.19772788287631     3.11445644922049     0.04954952823184    -0.41102480549393     1.11083291671459
14 1    20.72444275650633     1.57118824618140     1.60431043967591     0.19211960754182     0.39823542209999    -0.06507291966910
16 1    23.94760389131696     1.57014106538576     1.57534362886117    -0.48102417829791     0.45925370050689     0.52424372601133
4241 1    25.49609916215883     3.18774868326504     3.21602150115687     0.24908927784787     0.02068270068177    -0.23989773059510
143 1    22.33940858054657     0.00763343501649     3.18528825919220    -0.40154165186266     0.12303605384505     0.14266695039562
159 1    22.30902025885466     3.17893313518552     3.21282722525740     0.12283966140586     0.15077728163415    -0.48820053625141
33 1     0.02677534616723     6.35678043643825     0.04015791036799    -0.42851916063554     0.35396519224345    -0.65205086382666
18 1     1.56398200953021     4.80546506332604     1.62362930518168     0.52636340245710    -0.40598572214408    -0.06564066963953
35 1     3.20513011892741     6.31475127594344     0.04783526387532    -0.20852473605803     1.31454543043526    -0.59610528156948
163 1     3.19238254921130     6.35237336384293     3.19737661489311    -0.13220739757350     0.56379678878227     0.08683103614022
20 1     4.76827140499132     4.83855438321183     1.59078642127916     0.31418707800513    -1.19036724340585     0.17781652289879
37 1     6.39072804938239     6.37829618599061     0.02425564945352    -0.14000540717876     0.08556265024388    -0.42641869932423
165 1     6.36237375613830     6.37040206499375     3.18064335739398     0.40991758800694     0.13928797740392     0.30779478286337
22 1     7.96700863032678     4.80225639239785     1.57897421184302     0.07650121719859    -0.40699996971652     0.32381177989092
39 1     9.58011664467806     6.39429742923391     0.01564778542373     0.01197697654971    -0.16332165955670    -0.31211769605996
167 1     9.57216340007459     6.38760155772912     3.22356574484653    -0.11539455573386    -0.17980028998497    -0.40497233117315
24 1    11.17242722983731     4.77836151518724     1.60552192848593    -0.11418250991259     0.13436351805949    -0.20963645000084
41 1    12.76336905864863     6.34511714035790     0.00830395751238    -0.12728404649158     0.50783209871348    -0.10711095979664
169 1    12.75069254940749     6.33248582167491     3.22866133304722    -0.03295219348200     0.72787938989814    -0.55020135080141
26 1    14.32952559799167     4.79644278252163     1.57616595824681     0.34729119641514    -0.22552817366549     0.24305788609347
43 1    15.95592207884287     6.37869523028427     0.05024582155017    -0.15667321521732     0.09873517716241    -0.83263872270083
171 1    15.94977420156908     6.39118033164928     3.19117527128699    -0.09319697330527    -0.40235571889556     0.11139175627969
28 1    17.53604031263880     4.75319303088050     1.61815612170575    -0.05664094407505     0.54422094945530    -0.65878605754785
173 1    19.11888484951713     6.35863618901442     3.16004782159148     0.28170361348690     0.39203746077146     0.42710874688883
30 1    20.72923158955124     4.79721114593925     1.60983482040643     0.18283064070538    -0.21441126250654    -0.38551790503355
32 1    23.90432761604067     4.77144738517349     1.57943820534537     0.21957033042195     0.14963451712278     0.32444261557878
47 1    22.34199650461759     6.38026376794765     0.02265731509633    -0.06007046498235    -0.10259023550465    -0.39294584449136
175 1    22.30661853196622     6.41658183951701     3.19418811042063     0.24360785361389    -0.81379325999138    -0.05637295991635
177 1     0.01923548274861     9.55966053670323     3.18135318938892    -0.21127326410882     0.01481607258674     0.17893369339715
34 1     1.58848208133924     7.99368353954991     1.61071624032610     0.30861589223197    -0.40886566896922    -0.22597368348269
51 1     3.17166987805886     9.56391201412364     0.02388264442043     0.37212383194519    -0.12815465896166    -0.16787782028748
179 1     3.20805829229991     9.59753843250173     3.20968787460528    -0.23835859652570    -0.60000605372072    -0.29604066143938
36 1     4.79800497898735     7.99251008285618     1.61905584798885    -0.28354425290816    -0.14697139479299    -0.39252636571939
53 1     6.38199187029529     9.59624767077781     0.04585705674233    -0.34742391971693    -0.72686032678028    -0.92025566159586
181 1     6.38429479036494     9.56344683851007     3.14835033507600     0.06030136387629     0.03249052363633     0.78266373876212
38 1     8.00660286473825     7.93958423551141     1.59285200975349    -0.52811157333175     0.39636025171445     0.09988863318046
55 1     9.53603496849857     9.61584605850982     0.00209973849291     0.71331142584035    -1.06095309850511    -0.19324002605039
183 1     9.54792980304357     9.53934891054923     3.16885451956035     0.49000027152716     0.36503640523203     0.49562321616707
40 1    11.14963169812470     7.95173159621648     1.61531306814017     0.40444480680491     0.24800701365613    -0.18821058931539
185 1    12.81153697987823     9.56590144317973     3.18830373017793    -1.03291609616174    -0.03380287374088     0.14286587448002
42 1    14.35362611223117     7.98665787123167     1.62393370091986    -0.04190954748677    -0.43489593609225    -0.40897718934743
59 1    15.96081893177884     9.56169406451833     0.02288472099806    -0.34725700596752     0.08431280265553    -0.33632249823949
187 1    15.96628681687482     9.54213900300585     3.21273303881044     0.05411887974694     0.33631137109939    -0.29519148828284
44 1    17.55231040061952     7.96724869566667     1.58875638425973     0.04915976583662    -0.00162620590152     0.19586203838340
61 1    19.12124833886978     9.55794373408731     0.02293062842446     0.16198986244832     0.37527516180847    -0.33306817472054
189 1    19.16348461394397     9.60720833345941     3.22142860233071    -0.21659228344848    -0.68658234516247    -0.52555836539007
46 1    20.74825787870057     7.97161909836404     1.55175473334365    -0.38763429083234     0.17688493655491     0.71637563788412
48 1    23.92112596204227     7.97982441864859     1.59424483406795    -0.06590588092956    -0.15013232136378    -0.16463216931048
4145 1    25.48450259955824     9.57209396025877     0.00737789220893     0.24630455009807    -0.18771159424319     0.03307237502354
4273 1    25.48336788210737     9.57276655516825     3.21612342650557     0.38174006998695     0.08221615320329    -0.50622292296024
191 1    22.33060697504765     9.52908628074484     3.17801705291996    -0.32729050395398     0.81135010088668     0.03029737612677
193 1     0.00889659853520    12.72090115634790     3.16128366349280    -0.41955797042596     0.68684295867891     0.39653223896978
50 1     1.57632047162799    11.13389027557037     1.60273999427418     0.26049010746582     0.47437297835537    -0.38954857132944
66 1     1.58590798289748    14.34462280727811     1.59088440430125     0.18274247357539    -0.12603102784501     0.16817251165226
67 1     3.18101861562405    12.78107540089534     0.02167072323030    -0.03407588096264    -0.41559081141032    -0.20014596569604
195 1     3.17112878061482    12.76013087735372     3.19866202758555     0.31054997609923     0.12848744307648    -0.26864047076545
52 1     4.77206244054162    11.16879815326448     1.58681811806034     0.11344973519688     0.09304966369451     0.21457741420365
68 1     4.81959369305071    14.35746755513718     1.59089886703225    -0.51356263341943    -0.07123135832785     0.10996066733154
197 1     6.35235483846249    12.74135541652162     3.18705392106585     0.53767095251781     0.23149061960623    -0.01031690790612
54 1     7.99935899448208    11.11474595487110     1.56459051680527    -0.57998272947568     0.96859754953335     1.02686499044399
70 1     7.97581034227244    14.40593945984019     1.56653412742917     0.07533467264384    -1.11313439854605     0.57905695626984
71 1     9.57578056741750    12.75420539327969     0.03127507016607    -0.34632087302568     0.35493438209938    -0.64377015431815
199 1     9.54077312156844    12.76324197128550     3.16133211210911     0.16852143530305    -0.02820713731909     0.54116511438690
56 1    11.14436178496912    11.15530975871411     1.59930097267096     0.27425619997195    -0.15975754472895     0.18028641037889
72 1    11.14652286711272    14.34216023173716     1.56396598234309     0.17161031363174     0.26052170633200     0.65842432785993
73 1    12.73723791866368    12.73030267336534     0.01046656881905     0.42750541688033     0.32637198876105    -0.28012789168775
201 1    12.75361346882103    12.79107749010269     3.12828030447195     0.00270867661887    -0.63644398169965     1.15342846927187
58 1    14.33165235211610    11.12382400183882     1.63341242882525     0.42503265442011     0.56585617772573    -0.64890066865688
74 1    14.34826536765716    14.33231053859423     1.59122306766734    -0.08983988063591     0.30955020594675    -0.07898774493341
75 1    15.94632342636971    12.74963254700909     0.01865224768808    -0.20319686674957    -0.00607950516321    -0.39944463034351
203 1    15.97873809342090    12.76361161381574     3.17335913303143    -0.44929172040836    -0.43630802901573     0.33704703438726
60 1    17.55475418783682    11.14992170166263     1.59186885089245    -0.22986493307642     0.11473733797065     0.05935041007196
76 1    17.52546751615555    14.34151021661143     1.63505830130134     0.32687635135877     0.10343891141224    -0.62454432005225
205 1    19.16211195565911    12.77445982477860     3.19302367161246    -0.28253878438060    -0.16150500587797     0.19351746190440
62 1    20.72278414750148    11.19462230287279     1.61708094913761     0.08015606334984    -0.65797710595485    -0.29491575228839
78 1    20.71899210433791    14.30879898231514     1.58787243667955    -0.09226877403557     0.92323121053099     0.10703429231136
80 1    23.90079566556132    14.32970558226854     1.54163540468317     0.29628188086963     0.33931615012965     0.97153777427098
64 1    23.89511462432481    11.15103557932872     1.62344642181073     0.18551802303103     0.07554778038673    -0.34394486061136
4161 1    25.49251108143751    12.72767350447086     0.02314128136730     0.21916982324510     0.27283406218236    -0.26500757632711
207 1    22.35752979005585    12.78633663493180     3.15771200115073    -0.33284079662044    -0.62774951941757     0.65615256677829
209 1     0.05033335798688    15.94718904055597     3.20259903733550    -0.65480336620451    -0.05480882560771    -0.00639125139922
82 1     1.58225470699992    17.51141219224085     1.57582686871054     0.21255521767114     0.49475368184761     0.27564575554326
211 1     3.20786003625442    15.92578531167135     3.15914342042140    -0.04111149261028     0.22606250584647     0.62391608262335
84 1     4.75642371442659    17.55083882341370     1.59884112767882     0.29989773641911    -0.17905765232957    -0.14914963080944
85 1     6.40801338718619    15.95145898441264     0.00584504579743    -0.61281369956188     0.04477886776497    -0.22041830548564
213 1     6.40486874399025    15.97084316809736     3.16926636574435    -0.43054173623342    -0.41965709933956     0.29058419731954
86 1     7.94283179776849    17.51216748431113     1.61388487636769     0.66111102500513     0.95417410327994    -0.42972926351483
87 1     9.57349976010259    15.95400738354921     0.01534177168630    -0.14506743432754     0.24307031018496    -0.32826359820525
215 1     9.59624064559173    15.96371543362277     3.19895558661375    -0.29780409862527    -0.25901292802687    -0.20850662807233
88 1    11.17860381828311    17.55667352882523     1.59189287900580    -0.42121935294304    -0.01511743598214     0.08794262883993
89 1    12.71169209907616    15.94748488571595     0.01193945963064     0.76633873891450    -0.10926608360705    -0.20907564722684
217 1    12.76164140696338    15.96389777511009     3.19577432812460    -0.05172249832445    -0.37390768981158    -0.08490822842401
90 1    14.33101736757446    17.56163354017190     1.59395903037690     0.40135634471250    -0.47853543143501    -0.06575850614148
91 1    15.93764873335554    15.93653474722863     0.04134436697965    -0.23275102361731     0.18000894571491    -0.51355221588868
219 1    15.93946948218230    15.90502929581157     3.20196805953589    -0.07532567746806     0.67702707081556     0.12809947223778
92 1    17.53060841514629    17.52031004172964     1.61007259989831    -0.14828568075905     0.10586909650155    -0.22120313300994
221 1    19.12018753003439    15.96156097188029     3.21824629802159     0.27325098689966    -0.52186782149769    -0.37999835082453
94 1    20.70627048844699    17.53174224886215     1.58611958843962     0.38452018499708    -0.31154530980791     0.16063473534755
96 1    23.95067686093723    17.54196914653519     1.60524535304763    -0.47033886966793    -0.29459285476186    -0.10547801565065
4305 1    25.49399453752941    15.92951858646072     3.17442232441909     0.30118848242883     0.13392844628495     0.06430150251221
223 1    22.32385469489169    15.91787822415333     3.17070091686121    -0.12259399676176     0.29441181310689     0.20559966048487
98 1     1.59259178965066    20.72836135674253     1.59334654618822     0.11324570612856    -0.03664157430871    -0.10955057405023
227 1     3.17763323837880    19.14163141676553     3.20182996541615    -0.09297355546672    -0.23354460805685    -0.30258300666334
100 1     4.79885042033661    20.71122066328921     1.59710618754658    -0.33840653249415     0.28944309547183    -0.37017413051871
101 1     6.40534358169883    19.14697708836688     0.00212474689400    -0.17293777994027    -0.04006475864680    -0.05578751476060
229 1     6.32755059918531    19.13308663114695     3.16018941412380     0.77043542601293     0.09744033711193     0.36588719352425
102 1     7.95063564753613    20.74463008281371     1.59229766229019     0.30208123546957    -0.27664687232085    -0.01531232627075
231 1     9.53621098583675    19.17272133829397     3.17808771383379     0.41082916202311    -0.46295171754201     0.13480848082846
104 1    11.18504383361085    20.73938173328483     1.57639535387688    -0.11522499998319    -0.19955965810114     0.36893328383942
233 1    12.79910477150493    19.12749798118828     3.18683434054546    -0.88285380923324     0.25580147102244    -0.03046227559382
106 1    14.37839602717922    20.73550359205127     1.60232813578164    -0.25882324224900    -0.19153278401299    -0.17713857402894
235 1    15.92855955731782    19.13669302811920     3.19970798774764     0.44963018752505    -0.39014918642814    -0.24592466894046
108 1    17.57059320527322    20.68804476119092     1.57408788506251    -0.44492464999356     0.35655205770520     0.28944108745320
237 1    19.12628699317983    19.11988322895120     3.14448631438075     0.02570665965014     0.22853809034010     0.73795080229088
110 1    20.71829814310170    20.71890679735078     1.60699487914993     0.23700802676823     0.01396644506499    -0.09796100891132
112 1    23.92105859219187    20.70990671595787     1.58483359065223    -0.30831951473117     0.43184859983835     0.10662243142333
4321 1    25.51142596004583    19.11724599452328     3.18428091960322     0.12295465476903     0.11926180795039     0.09619549966126
111 1    22.31892760522543    19.11957955079660     0.03455482913638     0.18932887670812     0.36447017809022    -0.52862990405658
239 1    22.30224519892715    19.12839942788015     3.17078738795365     0.21501391247607    -0.20277567099662     0.20734357178963
241 1     0.01776379872839    22.34720356527686     3.15645752154287    -0.23083046979430    -0.26089286989922     0.46303821690398
114 1     1.59698361338529    23.95052039995391     1.57415852677091    -0.09882371214999    -0.61978585997049     0.13131083968172
2179 1     3.21739332418753    25.48175506054561     3.19377678446667    -0.17927416146748     0.40620572567209     0.00576918039524
2051 1     3.17747487050275    25.48803281575476     0.01978278136540     0.03538993987275     0.34875529163732    -0.46889348184384
115 1     3.22489472584486    22.31751454432601     0.00304501326833    -0.55122672971303    -0.08296770375629    -0.17417242207925
243 1     3.18221352803552    22.29953022207388     3.15791209115504     0.07034297145215     0.20908073007535     0.41111478932096
116 1     4.78473064120873    23.90817960473802     1.61452263991540     0.18649314545254     0.15045037007830    -0.40463279760863
245 1     6.33456911696499    22.33745713524110     3.23053799174516     0.73152753948904    -0.35303812049316    -0.69469125966181
118 1     8.01013825288007    23.88469235442207     1.58998775253688    -0.77772706929354     0.52408586259903    -0.04927056957287
2055 1     9.61360930979766    25.49535929230215     0.00739756639813    -0.90476388917981     0.19423171020346    -0.24136741897657
247 1     9.59795517789092    22.31252823967347     3.18640534787038    -0.47481931464585     0.14848810134701     0.12224024548924
120 1    11.13256275445244    23.89251918748108     1.56989409258062     0.77267093953975     0.28617558416944     0.29524535284314
2185 1    12.73828365797740    25.49746353727682     3.19497683539291     0.18176449121513     0.16679664911665     0.00932063933085
121 1    12.77767657662739    22.30048367846858     0.00080738375299    -0.37824933352706     0.46552024865577    -0.10416114672130
249 1    12.77076810928178    22.30863784806265     3.19699834419078    -0.31019781697526     0.23634626464957    -0.09680186182433
122 1    14.34626657950828    23.87772852567374     1.62144821781604    -0.02389273917117     0.54539093906368    -0.41321754135517
2187 1    15.92418707643306    25.50803459982010     3.20316741595814     0.26971456132448    -0.08594442746268    -0.07684300959841
123 1    15.97691611545876    22.28483278563283     0.01155318204195    -0.28919312190582     0.59881569473891     0.00131498177356
251 1    15.90927926648742    22.32391844458191     3.20484227696090     0.72733058648628    -0.00985240856789     0.00153117847793
124 1    17.55643485942217    23.90161313800632     1.64283221033028    -0.35212167757614     0.32395984390124    -0.55496066859508
125 1    19.14663362650029    22.30923547788645     0.05206460563430    -0.44771385354278    -0.02290373251863    -0.76087464064747
253 1    19.13320573009326    22.35348222650314     3.18831243035235    -0.11743310552394    -0.54541056452165     0.40235549228211
126 1    20.72135925699144    23.90571093477987     1.54027264410525     0.01031049913395     0.31291154403026     1.03326562928830
128 1    23.89415088147201    23.94546895740014     1.61012756077201     0.08924520836949    -0.37529752080802    -0.23172685094819
6145 1    25.48716601326129    25.50610700453293     0.00770161168365     0.37279454629819     0.27378651061104     0.01108190911247
4209 1    25.48952204031807    22.35532954322948     0.00774380596246     0.19751763108694    -0.37245566671637    -0.22833018845268
2191 1    22.28818413338499    25.50646066132215     3.16725675315381     0.60141188066344    -0.17928442074912     0.32962489892963
127 1    22.26381183780327    22.34826303257970     0.04103296212215     0.89845930995974    -0.60319810476245    -0.63412256528927
255 1    22.32564598703884    22.30776657776764     3.20616869671020    -0.04518058136081     0.17138271723583    -0.23424617525097
257 1     0.03529714153906     0.00743353867772     6.37991627599558    -0.48505559218687    -0.19676388660350    -0.23431211099720
130 1     1.61612004001014     1.59910494682881     4.75814708516663    -0.34148928117441    -0.19488002038134     0.27806879897045
258 1     1.61128029726807     1.60708677232410     7.93730971690323     0.07393325893199    -0.12514680548549     0.44891109781113
275 1     3.19014035001078     3.18575680852174     6.34865607627694     0.08067413023671     0.03520006223242     0.57175977651085
132 1     4.80060305424334     1.58086976500616     4.79172151847844    -0.07469864151068     0.31854332916922    -0.18667535655477
260 1     4.78198435127107     1.63982970954273     7.96528931020029     0.00972283369726    -0.62113291596735    -0.02896493166333
261 1     6.40279558832152     0.02226160620440     6.37530623500133    -0.42907352647018    -0.23277846505257     0.10155656344377
277 1     6.38982627734647     3.19892512609690     6.35897411897380     0.09127130022479     0.14119421333060     0.26854470452148
134 1     7.99269922404332     1.62251295479902     4.79467375497164    -0.30637730212188    -0.26706255571804    -0.20196451014961
262 1     7.97991040121683     1.61664832905918     7.99676095695022    -0.19912746750856    -0.11580371750213    -0.35930413522572
279 1     9.59977599197618     3.17668100930333     6.37017339439810    -0.56624856810616     0.24179264742211     0.19748558886192
136 1    11.13541295780570     1.64348201855030     4.76055099176903     0.46451978882338    -1.01792366619303     0.40664271926999
264 1    11.13251528599972     1.62211810214422     7.98194423503983     0.47955195872836    -0.70064703403165    -0.25541975891482
281 1    12.77943797964359     3.15984304039688     6.41509162550465    -0.23399493382166     0.38529076865148    -0.56600486154572
138 1    14.31857217232486     1.58576514465428     4.76765761179432     0.49681581641709     0.07937895382119     0.32981937373933
266 1    14.38339704238032     1.61844662771922     7.98366058874429    -0.55792124519157    -0.49077246674336    -0.28619980018071
283 1    15.96165242783366     3.21638689258503     6.37159449225089    -0.18063260541979    -0.49447110592502    -0.12336235864397
140 1    17.53420282873799     1.57293393945882     4.76291566712830    -0.04878988130475     0.22295225108692     0.37914170361515
268 1    17.51140506897794     1.58249653763414     7.99721080592240     0.52532735108704     0.15419695658926    -0.53865111835267
285 1    19.11413956207642     3.18819135246904     6.39386311895785     0.27195504286673    -0.07681520821715    -0.51736954617537
142 1    20.73032778853295     1.60481682232797     4.82236158955488    -0.24650907843076    -0.12984795398558    -0.55200874738264
270 1    20.74763870868117     1.57377944284334     7.96259056614613    -0.33489278792668     0.22083177941787     0.16459418622720
272 1    23.91973227557084     1.55989331267225     7.96996945285903     0.08622743574493     0.40289547412369     0.08513995880616
144 1    23.90273739252320     1.58818985149283     4.81210501973931     0.40789695515466     0.04496228974514    -0.56393558381848
4369 1    25.50427934367118     3.19739109942830     6.40145108438745     0.35311448237897    -0.18963737263520    -0.28205524194399
271 1    22.34209092199242     0.00034515284874     6.38610396154824    -0.55712069850237    -0.06213926038539     0.18969005676242
287 1    22.33998631764133     3.21408199482739     6.34977469257301    -0.37045400190756    -0.26443741852478     0.80018119444705
289 1     0.00022809508940     6.34402449830854     6.40975808267398    -0.06299516909176     0.50779292741613    -0.48819112896740
146 1     1.62197167210007     4.76605135349186     4.80063234851343    -0.48217463937983     0.15644710278579    -0.17741233783120
274 1     1.59290320274700     4.81386255669170     7.98826540302375     0.20975312361693    -0.65435358607028    -0.19512548300536
291 1     3.16789195102563     6.34638573684214     6.37529063874167     0.55512935074461     0.48600439948818    -0.08711013832944
148 1     4.79039469423517     4.78633238695826     4.78870472485861     0.13846076176343    -0.12586324088215    -0.07845060378674
276 1     4.78957361451723     4.80899115466443     7.96675048433802     0.00333795850658    -0.37675913474652     0.08049167866444
293 1     6.39106183495774     6.40556942237870     6.38802401915102    -0.19676235392592    -0.40239545368539    -0.31096284536286
150 1     8.00328920462860     4.79192989078580     4.75185587499463    -0.60515705235905    -0.05814604734468     0.35170440435178
278 1     8.00107958999352     4.80319521679948     7.96338247928228    -0.32520712878070    -0.33810858080161    -0.00823096064043
295 1     9.55555391719633     6.36830826660681     6.38068891586458     0.29211475501985     0.16154416706511     0.12382974433001
152 1    11.11833003723699     4.74976610516037     4.77267440344262     0.80566820579303     0.63334668096265     0.39594914816481
280 1    11.16313566382310     4.76634833955183     7.96975821587405     0.09512679279405     0.47665372799753    -0.05797844129806
297 1    12.78099804769863     6.39065663852043     6.36437035692463    -0.49784722656376    -0.43142168042940     0.34977288237875
154 1    14.32582882867961     4.76427938308041     4.76809680920642     0.47009115344624     0.10198703950016     0.28539127213078
282 1    14.35555837188441     4.76269146144975     7.98174231461742     0.04395270220921     0.47846157709790    -0.21821373908519
299 1    15.93764519522650     6.38681240524779     6.37582018835816     0.13648077900454    -0.17092484824655     0.02292850512043
156 1    17.53538346804885     4.78019007816858     4.77166602806290    -0.10204153531644    -0.16809191456634     0.10786896427663
284 1    17.53906070762621     4.81271395680547     7.97448245294611    -0.13150616422679    -0.34283798375307     0.06419864073322
301 1    19.11483854590013     6.37682275688103     6.37314082620320     0.37546237109852    -0.03892587265399    -0.02218350683804
158 1    20.71701589253081     4.78229087711207     4.78801287172498    -0.00180213881485     0.00886590752613    -0.05037056783568
286 1    20.71409959256039     4.79402932949036     7.97637331432559     0.35766835093858    -0.17545998242139    -0.03730475264040
288 1    23.96739902670204     4.76964159089913     7.97505046156028    -0.90272604980449     0.12787068996515     0.06595109335816
160 1    23.88346224678588     4.77805620562242     4.79778870549827     0.54246301179308     0.38534037962365    -0.33473562410366
303 1    22.33345763723705     6.39991444461046     6.39120029753943    -0.18570392701792    -0.47586016700977     0.05455254860486
162 1     1.59542834823051     7.95217633008894     4.76748763560919     0.03712510224750     0.34588724896919     0.26631327443713
290 1     1.63231444640578     7.93616054328044     7.93751254917789    -0.48832970594530     0.60676905605440     0.34301431615602
307 1     3.19095137696516     9.56735142025382     6.33747024292399    -0.19940703449796    -0.23932640038216     0.55513641322910
164 1     4.80840021877400     7.95242302462626     4.77692448789809    -0.43132062543011     0.23629323595862     0.05584184557135
292 1     4.80828631747711     7.97010593542525     7.96109509848645    -0.39223571790830     0.17839710578136     0.14357502398964
309 1     6.34436290448674     9.60225662794988     6.37076572615238     0.60238399183695    -0.53328642029327     0.19137457991592
166 1     7.94161221774516     7.98768738864888     4.79221524643288     0.44981236517852    -0.10626173758201    -0.24932348275029
294 1     7.96294806330275     7.97724840784972     7.94487996626495     0.25882045916057     0.26432058368348     0.40350100734251
311 1     9.57064933292623     9.57819340313129     6.37413578338080     0.00260601241887    -0.16997266146142     0.07150794410089