LAMMPS (4 May 2022)
  using 1 OpenMP thread(s) per MPI task
variable                    T equal 300
variable                    R equal 984523

units		                metal
dimension                   3
boundary	                p p p
atom_style	                atomic

lattice                     bcc 3.189
Lattice spacing in x,y,z = 3.189 3.189 3.189
region                      box block 0 8 0 8 0 8
create_box                  1 box
Created orthogonal box = (0 0 0) to (25.512 25.512 25.512)
  2 by 2 by 4 MPI processor grid
create_atoms                1 box
Created 1024 atoms
  using lattice units in orthogonal box = (0 0 0) to (25.512 25.512 25.512)
  create_atoms CPU = 0.003 seconds

pair_style	                tensormd
pair_coeff	                * * ../../../W_k32_snapshot.npz W interp 0.0001 1
Use interpolation: dr = 0.0001, algo = batch

mass                        1 183.8

neighbor                    1.0 bin
neigh_modify                every 1 delay 0 check yes

thermo                      1
thermo_style                custom step cpu temp ke pe etotal press vol pxx pyy pzz

velocity                    all create $T $R dist gaussian
velocity                    all create 300 $R dist gaussian
velocity                    all create 300 984523 dist gaussian
fix                         1 all nvt temp $T $T 0.1
fix                         1 all nvt temp 300 $T 0.1
fix                         1 all nvt temp 300 300 0.1
dump                        1 all custom 1 dump.fnn id type x y z fx fy fz

run                         1000
Neighbor list info ...
  update every 1 steps, delay 0 steps, check yes
  max neighbors/atom: 2000, page size: 100000
  master list distance cutoff = 7
  ghost atom cutoff = 7
  binsize = 3.5, bins = 8 8 8
  1 neighbor lists, perpetual/occasional/extra = 1 0 0
  (1) pair tensormd, perpetual
      attributes: full, newton on
      pair build: full/bin/atomonly
      stencil: full/bin/3d
      bin: standard
Per MPI rank memory allocation (min/avg/max) = 70.73 | 70.73 | 70.73 Mbytes
   Step          CPU            Temp          KinEng         PotEng         TotEng         Press          Volume          Pxx            Pyy            Pzz      
         0   0              300            39.669939     -13091.707     -13052.037      1554.061       16604.795      1710.3846      1324.7133      1627.0851    
         1   0.005687899    299.73964      39.63551      -13091.672     -13052.037      1566.1575      16604.795      1722.5785      1336.8233      1639.0707    
         2   0.011309302    298.95966      39.53237      -13091.569     -13052.037      1602.4083      16604.795      1759.1258      1373.1132      1674.9861    
         3   0.016995006    297.66326      39.360945     -13091.397     -13052.036      1662.6235      16604.795      1819.8418      1433.3921      1734.6366    
         4   0.022744074    295.85576      39.121933     -13091.158     -13052.036      1746.5078      16604.795      1904.4355      1517.3651      1817.7227    
         5   0.028715172    293.5445       38.816308     -13090.852     -13052.036      1853.6548      16604.795      2012.5029      1624.6265      1923.835     
         6   0.035334325    290.73886      38.445308     -13090.481     -13052.036      1983.5487      16604.795      2143.5291      1754.6624      2052.4546    
         7   0.041389461    287.45017      38.010435     -13090.045     -13052.035      2135.5696      16604.795      2296.8938      1906.8555      2202.9597    
         8   0.047137149    283.69174      37.513447     -13089.547     -13052.034      2308.9963      16604.795      2471.873       2080.4886      2374.6274    
         9   0.053191304    279.47874      36.956348     -13088.989     -13052.032      2503.0117      16604.795      2667.6458      2274.7484      2566.641     
        10   0.059508468    274.82815      36.341386     -13088.372     -13052.03       2716.7086      16604.795      2883.2995      2488.7328      2778.0934    
        11   0.065757898    269.7587       35.671037     -13087.699     -13052.028      2949.0947      16604.795      3117.8345      2721.4549      3007.9946    
        12   0.072380293    264.29079      34.947998     -13086.973     -13052.025      3199.0996      16604.795      3370.1716      2971.8504      3255.2768    
        13   0.078979202    258.44639      34.175174     -13086.196     -13052.021      3465.5813      16604.795      3639.1582      3238.7829      3518.8026    
        14   0.085327378    252.24894      33.355667     -13085.371     -13052.016      3747.333       16604.795      3923.5763      3521.0526      3797.3701    
        15   0.091751742    245.72328      32.492758     -13084.503     -13052.01       4043.09        16604.795      4222.1476      3817.4007      4089.7217    
        16   0.098387983    238.8955       31.589899     -13083.593     -13052.003      4351.538       16604.795      4533.5438      4126.5189      4394.5512    
        17   0.10501241     231.79284      30.650692     -13082.646     -13051.995      4671.3181      16604.795      4856.3904      4447.0546      4710.5091    
        18   0.11152414     224.44357      29.678876     -13081.665     -13051.986      5001.0369      16604.795      5189.2779      4777.6199      5036.2129    
        19   0.11833533     216.87687      28.678307     -13080.654     -13051.976      5339.2718      16604.795      5530.7662      5116.7974      5370.2518    
        20   0.12510086     209.12267      27.652945     -13079.617     -13051.964      5684.5786      16604.795      5879.3931      5463.1474      5711.1954    
        21   0.1316716      201.21155      26.606832     -13078.558     -13051.952      6035.499       16604.795      6233.682       5815.2152      6057.5997    
        22   0.13838329     193.17457      25.544078     -13077.482     -13051.937      6390.5672      16604.795      6592.1482      6171.5385      6408.015     
        23   0.1451059      185.04315      24.468835     -13076.391     -13051.922      6748.3161      16604.795      6953.3049      6530.6518      6760.9915    
        24   0.15178537     176.84894      23.385289     -13075.291     -13051.906      7107.2845      16604.795      7315.6718      6891.0959      7115.0858    
        25   0.15844804     168.62363      22.29763      -13074.186     -13051.888      7466.0231      16604.795      7677.7798      7251.4217      7468.8677    
        26   0.16505276     160.39886      21.210043     -13073.079     -13051.869      7823.1         16604.795      8038.1777      7610.197       7820.9254    
        27   0.17218295     152.20605      20.126682     -13071.976     -13051.85       8177.1074      16604.795      8395.4381      7966.0119      8169.8721    
        28   0.17887138     144.07628      19.051657     -13070.881     -13051.829      8526.6658      16604.795      8748.1626      8317.4851      8514.3498    
        29   0.18564512     136.04016      17.989016     -13069.797     -13051.808      8870.4306      16604.795      9094.9875      8663.2684      8853.0358    
        30   0.19206788     128.12768      16.942724     -13068.728     -13051.786      9207.0957      16604.795      9434.5886      9002.0515      9184.6471    
        31   0.19897673     120.3681       15.916651     -13067.68      -13051.763      9535.3988      16604.795      9765.6854      9332.5674      9507.9437    
        32   0.20580447     112.78986      14.914556     -13066.655     -13051.74       9854.1256      16604.795      10087.046      9653.5957      9821.7346    
        33   0.21256815     105.42042      13.940072     -13065.657     -13051.717      10162.114      16604.795      10397.493      9963.9678      10124.881    
        34   0.21927747     98.2862        12.996692     -13064.69      -13051.694      10458.258      16604.795      10695.903      10262.571      10416.3      
        35   0.22640397     91.412479      12.087758     -13063.758     -13051.671      10741.511      16604.795      10981.214      10548.35       10694.969    
        36   0.23311713     84.823307      11.216451     -13062.864     -13051.648      11010.889      16604.795      11252.429      10820.314      10959.925    
        37   0.23985985     78.541428      10.385779     -13062.011     -13051.626      11265.475      16604.795      11508.616      11077.536      11210.274    
        38   0.246504       72.588219      9.5985673     -13061.202     -13051.604      11504.42       16604.795      11748.913      11319.159      11445.188    
        39   0.25330145     66.983626      8.8574544     -13060.44      -13051.583      11726.946      16604.795      11972.531      11544.395      11663.911    
        40   0.25992774     61.746108      8.164881      -13059.727     -13051.563      11932.349      16604.795      12178.756      11752.531      11865.76     
        41   0.26654157     56.892584      7.5230844     -13059.066     -13051.543      12120.002      16604.795      12366.95       11942.931      12050.127    
        42   0.27344558     52.438388      6.9340921     -13058.459     -13051.525      12289.356      16604.795      12536.555      12115.034      12216.479    
        43   0.28024604     48.397211      6.3997146     -13057.907     -13051.508      12439.939      16604.795      12687.093      12268.362      12364.364    
        44   0.28700737     44.781057      5.9215392     -13057.413     -13051.491      12571.363      16604.795      12818.168      12402.514      12493.408    
        45   0.29371526     41.600189      5.5009231     -13056.977     -13051.476      12683.32       16604.795      12929.467      12517.175      12603.319    
        46   0.30042851     38.863077      5.1389863     -13056.601     -13051.462      12775.586      16604.795      13020.761      12612.11       12693.885    
        47   0.3076126      36.576349      4.8366051     -13056.285     -13051.448      12848.018      16604.795      13091.907      12687.17       12764.976    
        48   0.31464751     34.74474       4.5944056     -13056.03      -13051.435      12900.558      16604.795      13142.843      12742.287      12816.543    
        49   0.32174202     33.37105       4.4127584     -13055.836     -13051.423      12933.23       16604.795      13173.593      12777.478      12848.619    
        50   0.32827901     32.45612       4.2917743     -13055.703     -13051.411      12946.142      16604.795      13184.266      12792.844      12861.316    
        51   0.33501925     31.998808      4.2313024     -13055.631     -13051.4        12939.481      16604.795      13175.049      12788.564      12854.828    
        52   0.34171339     31.995987      4.2309294     -13055.62      -13051.389      12913.514      16604.795      13146.215      12764.903      12829.424    
        53   0.34849807     32.442565      4.2899819     -13055.668     -13051.378      12868.587      16604.795      13098.112      12722.199      12785.449    
        54   0.35548966     33.331518      4.4075309     -13055.775     -13051.367      12805.122      16604.795      13031.167      12660.872      12723.325    
        55   0.36227227     34.65394       4.5823988     -13055.938     -13051.356      12723.613      16604.795      12945.883      12581.412      12643.543    
        56   0.3689215      36.399109      4.8131681     -13056.157     -13051.344      12624.628      16604.795      12842.834      12484.385      12546.665    
        57   0.37582108     38.554575      5.0981921     -13056.43      -13051.332      12508.8        16604.795      12722.662      12370.422      12433.317    
        58   0.3824485      41.106245      5.4356074     -13056.755     -13051.319      12376.829      16604.795      12586.076      12240.222      12304.19     
        59   0.3893959      44.038488      5.823347      -13057.129     -13051.306      12229.476      16604.795      12433.849      12094.544      12160.033    
        60   0.39655629     47.33424       6.2591547     -13057.551     -13051.292      12067.557      16604.795      12266.81       11934.208      12001.653    
        61   0.40343119     50.975122      6.7405998     -13058.017     -13051.276      11891.946      16604.795      12085.846      11760.085      11829.906    
        62   0.41045014     54.941546      7.2650926     -13058.525     -13051.26       11703.564      16604.795      11891.892      11573.098      11645.701    
        63   0.41720066     59.212841      7.8298992     -13059.072     -13051.242      11503.378      16604.795      11685.93       11374.217      11449.987    
        64   0.42367529     63.767362      8.4321578     -13059.655     -13051.223      11292.397      16604.795      11468.987      11164.449      11243.755    
        65   0.4303734      68.582615      9.0688938     -13060.271     -13051.202      11071.665      16604.795      11242.124      10944.843      11028.03     
        66   0.43725438     73.635373      9.7370357     -13060.916     -13051.179      10842.26       16604.795      11006.436      10716.475      10803.869    
        67   0.44409242     78.901788      10.43343      -13061.589     -13051.155      10605.284      16604.795      10763.046      10480.451      10572.356    
        68   0.45074233     84.357518      11.154858     -13062.284     -13051.129      10361.863      16604.795      10513.1        10237.897      10334.594    
        69   0.45740729     89.977833      11.89805      -13062.999     -13051.101      10113.14       16604.795      10257.759      9989.9573      10091.702    
        70   0.46394427     95.737737      12.659701     -13063.731     -13051.071      9860.2666      16604.795      9998.2009      9737.7858      9844.813     
        71   0.47077309     101.61208      13.436483     -13064.476     -13051.039      9604.4047      16604.795      9735.6059      9482.5443      9595.0638    
        72   0.47766668     107.57567      14.225068     -13065.23      -13051.005      9346.7152      16604.795      9471.1586      9225.3939      9343.593     
        73   0.4843967      113.6034       15.022132     -13065.991     -13050.969      9088.355       16604.795      9206.0385      8967.4919      9091.5346    
        74   0.49104145     119.67031      15.824379     -13066.755     -13050.93       8830.4715      16604.795      8941.4155      8709.9856      8840.0133    
        75   0.49787653     125.75177      16.62855      -13067.518     -13050.89       8574.1971      16604.795      8678.4458      8454.0068      8590.1387    
        76   0.50464005     131.82352      17.431437     -13068.278     -13050.847      8320.6442      16604.795      8418.265       8200.6668      8343.0008    
        77   0.51138616     137.86182      18.229899     -13069.032     -13050.802      8070.8989      16604.795      8161.9818      7951.0507      8099.6643    
        78   0.51822415     143.8435       19.020876     -13069.775     -13050.754      7826.018       16604.795      7910.6767      7706.2133      7861.164     
        79   0.52495938     149.74612      19.801398     -13070.506     -13050.705      7587.0214      16604.795      7665.392       7467.173       7628.4992    
        80   0.53148726     155.548        20.568599     -13071.222     -13050.654      7354.8895      16604.795      7427.1306      7234.9078      7402.63      
        81   0.53832101     161.22835      21.31973      -13071.92      -13050.6        7130.5577      16604.795      7196.8503      7010.3504      7184.4725    
        82   0.54476091     166.76733      22.052166     -13072.597     -13050.545      6914.9113      16604.795      6975.4573      6794.3836      6974.893     
        83   0.55138386     172.14613      22.763421     -13073.252     -13050.488      6708.7829      16604.795      6763.8056      6587.8368      6774.7063    
        84   0.55799406     177.34703      23.451153     -13073.881     -13050.43       6512.9478      16604.795      6562.6908      6391.4822      6584.6704    
        85   0.56472469     182.35349      24.113172     -13074.483     -13050.37       6328.1208      16604.795      6372.8466      6206.0314      6405.4845    
        86   0.57141973     187.15016      24.747451     -13075.056     -13050.308      6154.9531      16604.795      6194.9433      6032.1325      6237.7836    
        87   0.57811351     191.72297      25.352127     -13075.597     -13050.245      5994.0296      16604.795      6029.5832      5870.3665      6082.139     
        88   0.58483685     196.05913      25.925513     -13076.107     -13050.181      5845.8672      16604.795      5877.3001      5721.2476      5939.0538    
        89   0.59151744     200.14722      26.466093     -13076.582     -13050.116      5710.9121      16604.795      5738.5555      5585.2189      5808.9619    
        90   0.59823199     203.97714      26.972535     -13077.023     -13050.05       5589.5395      16604.795      5613.7391      5462.6526      5692.2268    
        91   0.6049058      207.54018      27.443687     -13077.427     -13049.984      5482.0526      16604.795      5503.167       5353.8491      5589.1416    
        92   0.61151261     210.82901      27.87858      -13077.795     -13049.916      5388.6811      16604.795      5407.0814      5259.0359      5499.926     
        93   0.61836732     213.83771      28.276429     -13078.125     -13049.848      5309.5829      16604.795      5325.6502      5178.3691      5424.7294    
        94   0.62509851     216.5617       28.636631     -13078.416     -13049.78       5244.8432      16604.795      5258.9679      5111.9328      5363.6289    
        95   0.63154328     218.99783      28.958768     -13078.67      -13049.711      5194.4764      16604.795      5207.0564      5059.7401      5316.6328    
        96   0.63831452     221.14425      29.242597     -13078.884     -13049.642      5158.4271      16604.795      5169.8666      5021.7358      5283.6789    
        97   0.64491353     223.00051      29.488055     -13079.061     -13049.572      5136.5715      16604.795      5147.2791      4997.7966      5264.6387    
        98   0.65142736     224.56742      29.695252     -13079.198     -13049.503      5128.7197      16604.795      5139.107       4987.7338      5259.3182    
        99   0.65814768     225.84709      29.864467     -13079.298     -13049.434      5134.6188      16604.795      5145.0989      4991.2967      5267.4609    
       100   0.66460966     226.84286      29.996142     -13079.361     -13049.364      5153.9543      16604.795      5164.9398      5008.1734      5288.7496    
       101   0.67118205     227.55929      30.090877     -13079.386     -13049.295      5186.3546      16604.795      5198.2561      5037.9967      5322.8109    
       102   0.67814248     228.00206      30.149426     -13079.376     -13049.226      5231.3927      16604.795      5244.6169      5080.3438      5369.2173    
       103   0.68472643     228.17797      30.172687     -13079.33      -13049.157      5288.5909      16604.795      5303.5396      5134.7429      5427.4902    
       104   0.69128515     228.09485      30.161696     -13079.251     -13049.089      5357.4242      16604.795      5374.4919      5200.6755      5497.1052    
       105   0.69789325     227.76154      30.117621     -13079.138     -13049.021      5437.3238      16604.795      5456.8966      5277.5802      5577.4946    
       106   0.70445137     227.18776      30.041749     -13078.995     -13048.953      5527.6812      16604.795      5550.1341      5364.8569      5668.0524    
       107   0.71144554     226.38414      29.935483     -13078.821     -13048.886      5627.8526      16604.795      5653.5495      5461.8712      5768.1371    
       108   0.71808436     225.36204      29.800328     -13078.619     -13048.819      5737.1622      16604.795      5766.4529      5567.9574      5877.0762    
       109   0.72455074     224.13359      29.637885     -13078.39      -13048.752      5854.9075      16604.795      5888.1271      5682.4233      5994.172     
       110   0.73117802     222.71152      29.44984      -13078.136     -13048.686      5980.3634      16604.795      6017.8303      5804.5562      6118.7037    
       111   0.73813097     221.10914      29.237953     -13077.858     -13048.62       6112.7851      16604.795      6154.8         5933.6233      6249.9319    
       112   0.74482087     219.34025      29.004048     -13077.559     -13048.555      6251.4141      16604.795      6298.2583      6068.879       6387.1051    
       113   0.75144657     217.41906      28.750003     -13077.24      -13048.49       6395.4814      16604.795      6447.4153      6209.5678      6529.4611    
       114   0.75802353     215.3601       28.47774      -13076.903     -13048.426      6544.2118      16604.795      6601.4748      6354.9283      6676.2324    
       115   0.76466476     213.17815      28.189213     -13076.551     -13048.362      6696.8285      16604.795      6759.6364      6504.1984      6826.6506    
       116   0.77122852     210.88814      27.886399     -13076.185     -13048.298      6852.5561      16604.795      6921.1012      6656.6174      6979.9497    
       117   0.7776836      208.50512      27.571285     -13075.807     -13048.236      7010.6257      16604.795      7085.0756      6811.431       7135.3706    
       118   0.7842705      206.04411      27.245858     -13075.419     -13048.173      7170.2777      16604.795      7250.7739      6967.895       7292.1644    
       119   0.79075053     203.52007      26.912096     -13075.023     -13048.111      7330.7661      16604.795      7417.424       7125.2783      7449.596     
       120   0.79747473     200.94781      26.571958     -13074.621     -13048.049      7491.362       16604.795      7584.2698      7282.8673      7606.9488    
       121   0.8042945      198.3419       26.22737      -13074.215     -13047.988      7651.356       16604.795      7750.5745      7439.9679      7763.5257    
       122   0.81105753     195.71663      25.880222     -13073.807     -13047.927      7810.0628      16604.795      7915.6246      7595.9094      7918.6545    
       123   0.81759828     193.08589      25.532352     -13073.399     -13047.867      7966.8234      16604.795      8078.7326      7750.0479      8071.6896    
       124   0.82432278     190.46317      25.185541     -13072.992     -13047.807      8121.0081      16604.795      8239.2406      7901.7679      8222.0159    
       125   0.83324283     187.86143      24.841504     -13072.588     -13047.747      8272.0186      16604.795      8396.5216      8050.4849      8369.0494    
       126   0.83974799     185.29308      24.501883     -13072.189     -13047.687      8419.2917      16604.795      8549.9836      8195.6496      8512.2419    
       127   0.84640042     182.76991      24.168237     -13071.796     -13047.628      8562.3002      16604.795      8699.071       8336.7481      8651.0816    
       128   0.85248009     180.30305      23.842036     -13071.411     -13047.569      8700.5556      16604.795      8843.2672      8473.3041      8785.0954    
       129   0.85917531     177.90291      23.524659     -13071.036     -13047.511      8833.6091      16604.795      8982.0957      8604.8808      8913.8509    
       130   0.86577663     175.57916      23.217382     -13070.67      -13047.453      8961.0545      16604.795      9115.1226      8731.0832      9036.9577    
       131   0.87382373     173.34066      22.921378     -13070.316     -13047.395      9082.528       16604.795      9241.9577      8851.5582      9154.068     
       132   0.88047197     171.19546      22.637711     -13069.975     -13047.337      9197.71        16604.795      9362.2553      8965.9959      9264.8789    
       133   0.88691553     169.15076      22.367335     -13069.647     -13047.279      9306.3262      16604.795      9475.7162      9074.131       9369.1316    
       134   0.89298772     167.2129       22.111085     -13069.333     -13047.222      9408.1471      16604.795      9582.0863      9175.7422      9466.6127    
       135   0.89980092     165.38734      21.869685     -13069.035     -13047.165      9502.9893      16604.795      9681.1591      9270.6533      9557.1556    
       136   0.9068048      163.67863      21.643738     -13068.752     -13047.108      9590.7153      16604.795      9772.7751      9358.7334      9640.6373    
       137   0.91344065     162.09047      21.433729     -13068.485     -13047.051      9671.233       16604.795      9856.8214      9439.8959      9716.9816    
       138   0.91948123     160.62562      21.240028     -13068.234     -13046.994      9744.4954      16604.795      9933.2314      9514.0986      9786.1562    
       139   0.92602615     159.28599      21.062885     -13068         -13046.937      9810.5009      16604.795      10001.985      9581.3435      9848.1739    
       140   0.9383941      158.07263      20.902438     -13067.783     -13046.881      9869.2903      16604.795      10063.107      9641.6741      9903.0896    
       141   0.94501343     156.98571      20.758711     -13067.583     -13046.824      9920.948       16604.795      10116.666      9695.1773      9951.0005    
       142   0.95901138     156.02459      20.63162      -13067.399     -13046.767      9965.5992      16604.795      10162.774      9741.9788      9992.0454    
       143   0.96561601     155.18784      20.520974     -13067.231     -13046.71       10003.409      16604.795      10201.582      9782.244       10026.4      
       144   0.97330535     154.47327      20.426483     -13067.08      -13046.654      10034.579      16604.795      10233.284      9816.1748      10054.279    
       145   0.97986977     153.87793      20.34776      -13066.945     -13046.597      10059.35       16604.795      10258.11       9844.0085      10075.931    
       146   0.9876743      153.39823      20.284327     -13066.824     -13046.54       10077.992      16604.795      10276.324      9866.0149      10091.638    
       147   0.99633721     153.0299       20.235623     -13066.719     -13046.483      10090.811      16604.795      10288.225      9882.4948      10101.712    
       148   1.0027213      152.76812      20.201007     -13066.627     -13046.426      10098.137      16604.795      10294.141      9893.7764      10106.495    
       149   1.0092718      152.60751      20.179769     -13066.548     -13046.368      10100.331      16604.795      10294.429      9900.214       10106.351    
       150   1.015889       152.54221      20.171134     -13066.482     -13046.311      10097.775      16604.795      10289.471      9902.1844      10101.669    
       151   1.0226948      152.56594      20.174271     -13066.427     -13046.253      10090.871      16604.795      10279.671      9900.0835      10092.857    
       152   1.0290576      152.67204      20.188302     -13066.384     -13046.195      10080.038      16604.795      10265.451      9894.3247      10080.339    
       153   1.0354808      152.85358      20.212307     -13066.349     -13046.137      10065.712      16604.795      10247.25       9885.334       10064.551    
       154   1.0423749      153.10334      20.245333     -13066.324     -13046.079      10048.337      16604.795      10225.52       9873.5483      10045.942    
       155   1.0489579      153.41395      20.286407     -13066.307     -13046.02       10028.366      16604.795      10200.72       9859.4113      10024.967    
       156   1.0556052      153.77792      20.334536     -13066.296     -13045.961      10006.257      16604.795      10173.317      9843.3703      10002.082    
       157   1.0621487      154.1877       20.388722     -13066.291     -13045.902      9982.4675      16604.795      10143.781      9825.8738      9977.7473    
       158   1.0685953      154.63575      20.447969     -13066.291     -13045.843      9957.4546      16604.795      10112.58       9807.3665      9952.4172    
       159   1.075762       155.11459      20.511287     -13066.294     -13045.783      9931.6686      16604.795      10080.178      9788.2871      9926.5408    
       160   1.0825485      155.61687      20.577705     -13066.301     -13045.723      9905.5515      16604.795      10047.032      9769.0649      9900.5578    
       161   1.0892964      156.13542      20.646276     -13066.309     -13045.663      9879.5339      16604.795      10013.588      9750.1176      9874.8957    
       162   1.0960211      156.66334      20.716083     -13066.319     -13045.603      9854.0307      16604.795      9980.2805      9731.846       9849.9655    
       163   1.1028462      157.19397      20.786251     -13066.328     -13045.542      9829.4394      16604.795      9947.5245      9714.6331      9826.1604    
       164   1.1097918      157.72105      20.855947     -13066.337     -13045.481      9806.137       16604.795      9915.7173      9698.841       9803.8526    
       165   1.1164975      158.23865      20.924392     -13066.344     -13045.42       9784.4771      16604.795      9885.2342      9684.8071      9783.39      
       166   1.1234945      158.74133      20.990863     -13066.349     -13045.358      9764.7879      16604.795      9856.4254      9672.8436      9765.0947    
       167   1.130295       159.22408      21.054698     -13066.351     -13045.297      9747.3698      16604.795      9829.6154      9663.2335      9749.2604    
       168   1.136952       159.6824       21.115303     -13066.35      -13045.235      9732.4929      16604.795      9805.0984      9656.2296      9736.1506    
       169   1.1436224      160.11235      21.172157     -13066.345     -13045.173      9720.3957      16604.795      9783.1389      9652.0527      9725.9956    
       170   1.1503302      160.51054      21.224811     -13066.335     -13045.11       9711.2847      16604.795      9763.9701      9650.8899      9718.994     
       171   1.1569689      160.87416      21.272893     -13066.321     -13045.048      9705.3306      16604.795      9747.7904      9652.8936      9715.3079    
       172   1.1636958      161.20101      21.316113     -13066.301     -13044.985      9702.6698      16604.795      9734.764       9658.1806      9715.0647    
       173   1.1705188      161.4895       21.354261     -13066.277     -13044.923      9703.4018      16604.795      9725.0206      9666.8302      9718.3544    
       174   1.1773738      161.73866      21.38721      -13066.247     -13044.86       9707.5906      16604.795      9718.6537      9678.8869      9725.2311    
       175   1.1839849      161.94818      21.414914     -13066.212     -13044.797      9715.2629      16604.795      9715.7212      9694.3568      9735.7108    
       176   1.190661       162.11831      21.437412     -13066.171     -13044.734      9726.4095      16604.795      9716.2448      9713.21        9749.7738    
       177   1.1975353      162.24999      21.454823     -13066.125     -13044.67       9740.9849      16604.795      9720.2116      9735.3801      9767.3628    
       178   1.2042572      162.3447       21.467348     -13066.074     -13044.607      9758.9079      16604.795      9727.5726      9760.7659      9788.3851    
       179   1.2112255      162.40457      21.475264     -13066.019     -13044.544      9780.0637      16604.795      9738.2461      9789.2312      9812.7137    
       180   1.2182171      162.43226      21.478926     -13065.959     -13044.48       9804.3041      16604.795      9752.1168      9820.6073      9840.1881    
       181   1.225132       162.43099      21.478758     -13065.896     -13044.417      9831.449       16604.795      9769.0384      9854.6934      9870.6153    
       182   1.2318104      162.40452      21.475257     -13065.829     -13044.353      9861.2893      16604.795      9788.8346      9891.2604      9903.7729    
       183   1.2387635      162.35706      21.468982     -13065.759     -13044.29       9893.5862      16604.795      9811.3005      9930.0492      9939.409     
       184   1.2454314      162.2933       21.460551     -13065.687     -13044.226      9928.0763      16604.795      9836.2054      9970.7769      9977.2465    
       185   1.2521737      162.21834      21.450639     -13065.613     -13044.163      9964.472       16604.795      9863.2947      10013.137      10016.984    
       186   1.2588116      162.13765      21.439968     -13065.539     -13044.099      10002.465      16604.795      9892.2917      10056.802      10058.301    
       187   1.2656207      162.05702      21.429307     -13065.464     -13044.035      10041.727      16604.795      9922.9003      10101.426      10100.854    
       188   1.272257       161.98253      21.419457     -13065.391     -13043.971      10081.915      16604.795      9954.8078      10146.649      10144.288    
       189   1.2792908      161.92049      21.411253     -13065.319     -13043.908      10122.673      16604.795      9987.6869      10192.098      10188.234    
       190   1.2859058      161.87738      21.405553     -13065.249     -13043.844      10163.633      16604.795      10021.199      10237.389      10232.31     
       191   1.2927814      161.85983      21.403232     -13065.183     -13043.78       10204.42       16604.795      10054.996      10282.135      10276.131    
       192   1.299396       161.87452      21.405174     -13065.121     -13043.716      10244.657      16604.795      10088.724      10325.941      10319.306    
       193   1.3061006      161.92814      21.412265     -13065.064     -13043.652      10283.962      16604.795      10122.026      10368.416      10361.443    
       194   1.3130444      162.02738      21.425388     -13065.013     -13043.588      10321.955      16604.795      10154.544      10409.167      10402.153    
       195   1.3199471      162.1788       21.44541      -13064.969     -13043.523      10358.262      16604.795      10185.923      10447.811      10441.052    
       196   1.3267577      162.38883      21.473182     -13064.932     -13043.459      10392.514      16604.795      10215.81       10483.969      10477.761    
       197   1.3334411      162.66367      21.509525     -13064.904     -13043.394      10424.352      16604.795      10243.863      10517.277      10511.917    
       198   1.3405167      163.00928      21.555226     -13064.885     -13043.329      10453.433      16604.795      10269.749      10547.383      10543.166    
       199   1.3472448      163.43129      21.611031     -13064.875     -13043.264      10479.423      16604.795      10293.146      10573.951      10571.173    
       200   1.354038       163.93499      21.677637     -13064.877     -13043.199      10502.012      16604.795      10313.75       10596.667      10595.62     
       201   1.3605877      164.52522      21.755685     -13064.889     -13043.134      10520.907      16604.795      10331.272      10615.235      10616.213    
       202   1.3676043      165.20637      21.845755     -13064.914     -13043.068      10535.836      16604.795      10345.443      10629.388      10632.677    
       203   1.3747333      165.98231      21.94836      -13064.95      -13043.002      10546.555      16604.795      10356.019      10638.881      10644.766    
       204   1.3814035      166.85637      22.063939     -13064.999     -13042.935      10552.845      16604.795      10362.774      10643.498      10652.262    
       205   1.3879661      167.83127      22.192854     -13065.061     -13042.868      10554.514      16604.795      10365.513      10643.055      10654.974    
       206   1.394633       168.90912      22.335381     -13065.136     -13042.801      10551.403      16604.795      10364.066      10637.398      10652.745    
       207   1.4015278      170.09135      22.491711     -13065.225     -13042.733      10543.382      16604.795      10358.292      10626.408      10645.447    
       208   1.4083123      171.37871      22.661943     -13065.327     -13042.665      10530.355      16604.795      10348.081      10609.998      10632.987    
       209   1.4148807      172.77126      22.846084     -13065.443     -13042.597      10512.26       16604.795      10333.352      10588.119      10615.308    
       210   1.4215612      174.26829      23.044041     -13065.571     -13042.527      10489.068      16604.795      10314.06       10560.758      10592.387    
       211   1.4286247      175.86839      23.255627     -13065.713     -13042.458      10460.788      16604.795      10290.19       10527.937      10564.237    
       212   1.4353102      177.56937      23.480553     -13065.868     -13042.387      10427.463      16604.795      10261.763      10489.718      10530.908    
       213   1.4422409      179.3683       23.718431     -13066.035     -13042.316      10389.172      16604.795      10228.831      10446.199      10492.486    
       214   1.4486176      181.26149      23.968774     -13066.214     -13042.245      10346.032      16604.795      10191.484      10397.518      10449.095    
       215   1.4554316      183.24452      24.230996     -13066.404     -13042.173      10298.194      16604.795      10149.844      10343.848      10400.891    
       216   1.4622729      185.31223      24.504416     -13066.604     -13042.1        10245.845      16604.795      10104.066      10285.399      10348.07     
       217   1.4689491      187.45875      24.788256     -13066.815     -13042.026      10189.206      16604.795      10054.339      10222.419      10290.86     
       218   1.4756715      189.67751      25.08165      -13067.034     -13041.952      10128.534      16604.795      10000.887      10155.189      10229.525    
       219   1.4826619      191.96129      25.383642     -13067.261     -13041.878      10064.116      16604.795      9943.9616      10084.025      10164.361    
       220   1.4894898      194.30225      25.693195     -13067.495     -13041.802      9996.2724      16604.795      9883.8482      10009.276      10095.693    
       221   1.4962977      196.69195      26.009192     -13067.735     -13041.726      9925.353       16604.795      9820.8595      9931.3198      10023.88     
       222   1.5031519      199.12141      26.330447     -13067.98      -13041.649      9851.7358      16604.795      9755.3372      9850.5663      9949.3038    
       223   1.510238       201.58114      26.655705     -13068.227     -13041.572      9775.8253      16604.795      9687.6482      9767.4502      9872.3774    
       224   1.516987       204.06122      26.983653     -13068.477     -13041.494      9698.0498      16604.795      9618.1834      9682.4315      9793.5345    
       225   1.5236868      206.55131      27.312926     -13068.728     -13041.415      9618.8601      16604.795      9547.3559      9595.9932      9713.2313    
       226   1.5304876      209.04078      27.642116     -13068.978     -13041.336      9538.7266      16604.795      9475.5991      9508.6376      9631.9433    
       227   1.5373222      211.51869      27.969778     -13069.226     -13041.256      9458.1365      16604.795      9403.3628      9420.884       9550.1625    
       228   1.5442089      213.9739       28.294438     -13069.47      -13041.175      9377.5913      16604.795      9331.1125      9333.266       9468.3953    
       229   1.5509155      216.39513      28.614605     -13069.709     -13041.095      9297.6045      16604.795      9259.3253      9246.3296      9387.1586    
       230   1.5576541      218.77102      28.928777     -13069.942     -13041.013      9218.6979      16604.795      9188.4887      9160.6269      9306.9781    
       231   1.5643381      221.09022      29.235452     -13070.167     -13040.931      9141.3987      16604.795      9119.0953      9076.7163      9228.3845    
       232   1.5710527      223.34142      29.533135     -13070.382     -13040.849      9066.2374      16604.795      9051.6431      8995.1582      9151.911     
       233   1.5777154      225.51346      29.82035      -13070.587     -13040.767      8993.7429      16604.795      8986.6293      8916.5102      9078.0892    
       234   1.5841781      227.59536      30.095646     -13070.779     -13040.684      8924.4407      16604.795      8924.5489      8841.3258      9007.4473    
       235   1.5907526      229.57642      30.357609     -13070.958     -13040.601      8858.8489      16604.795      8865.8919      8770.1492      8940.5057    
       236   1.597501       231.4463       30.604869     -13071.122     -13040.517      8797.4755      16604.795      8811.139       8703.5132      8877.7743    
       237   1.6043925      233.19504      30.83611      -13071.27      -13040.434      8740.814       16604.795      8760.7585      8641.9348      8819.7488    
       238   1.6114457      234.81315      31.050077     -13071.401     -13040.351      8689.3417      16604.795      8715.204       8585.9128      8766.9083    
       239   1.6180189      236.29166      31.245586     -13071.513     -13040.267      8643.5152      16604.795      8674.911       8535.9234      8719.7113    
       240   1.6245567      237.62222      31.42153      -13071.605     -13040.183      8603.7679      16604.795      8640.2927      8492.4177      8678.5934    
       241   1.6312895      238.79709      31.576887     -13071.677     -13040.1        8570.5069      16604.795      8611.739       8455.8185      8643.9634    
       242   1.6379786      239.80924      31.710726     -13071.727     -13040.017      8544.1097      16604.795      8589.6116      8426.5167      8616.2007    
       243   1.6445443      240.65236      31.822215     -13071.756     -13039.933      8524.9216      16604.795      8574.2424      8404.8693      8595.653     
       244   1.6511106      241.32096      31.910625     -13071.761     -13039.85       8513.2536      16604.795      8565.9309      8391.1966      8582.6333    
       245   1.6577273      241.81033      31.975337     -13071.743     -13039.768      8509.3796      16604.795      8564.9417      8385.7792      8577.4178    
       246   1.6644976      242.11666      32.015843     -13071.701     -13039.685      8513.5338      16604.795      8571.5018      8388.8562      8580.2434    
       247   1.6712131      242.23698      32.031754     -13071.635     -13039.603      8525.9096      16604.795      8585.7992      8400.6239      8591.3057    
       248   1.6779325      242.16927      32.0228       -13071.544     -13039.521      8546.6572      16604.795      8607.9815      8421.2323      8610.7577    
       249   1.6845868      241.91241      31.988835     -13071.428     -13039.44       8575.8825      16604.795      8638.1533      8450.7858      8638.7084    
       250   1.6911629      241.46623      31.929835     -13071.288     -13039.359      8613.6467      16604.795      8676.377       8489.3419      8675.2213    
       251   1.6978813      240.83152      31.845906     -13071.124     -13039.278      8659.9639      16604.795      8722.6697      8536.9083      8720.3137    
       252   1.7045943      240.01001      31.737275     -13070.935     -13039.198      8714.8021      16604.795      8777.0048      8593.4453      8773.9563    
       253   1.7116195      239.0044       31.604299     -13070.723     -13039.119      8778.0828      16604.795      8839.3107      8658.864       8836.0737    
       254   1.7184304      237.81831      31.44746      -13070.487     -13039.04       8849.6798      16604.795      8909.4705      8733.0268      8906.5423    
       255   1.7250646      236.45633      31.26736      -13070.229     -13038.961      8929.4219      16604.795      8987.3238      8815.7482      8985.1936    
       256   1.7317809      234.92393      31.064727     -13069.948     -13038.883      9017.0919      16604.795      9072.6663      8906.796       9071.8133    
       257   1.7384822      233.22751      30.840404     -13069.647     -13038.806      9112.4281      16604.795      9165.2513      9005.8915      9166.1416    
       258   1.7451173      231.37433      30.595351     -13069.325     -13038.729      9215.126       16604.795      9264.7902      9112.711       9267.8768    
       259   1.7517654      229.37247      30.330639     -13068.984     -13038.653      9324.8395      16604.795      9370.9554      9226.8889      9376.6743    
       260   1.7583769      227.23084      30.047445     -13068.625     -13038.578      9441.1833      16604.795      9483.3813      9348.0179      9492.1507    
       261   1.7652573      224.95912      29.747049     -13068.25      -13038.503      9563.7341      16604.795      9601.6655      9475.6527      9613.8841    
       262   1.7720824      222.5677       29.430824     -13067.86      -13038.429      9692.0339      16604.795      9725.3729      9609.3113      9741.4176    
       263   1.7789376      220.06765      29.100234     -13067.455     -13038.355      9825.5919      16604.795      9854.0365      9748.4781      9874.261     
       264   1.785495       217.47066      28.756825     -13067.039     -13038.282      9963.8868      16604.795      9987.1604      9892.6066      10011.893    
       265   1.7922709      214.789        28.402221     -13066.612     -13038.209      10106.371      16604.795      10124.222      10041.123      10153.767    
       266   1.7991176      212.03545      28.038111     -13066.176     -13038.138      10252.472      16604.795      10264.678      10193.428      10299.309    
       267   1.8074651      209.22325      27.666245     -13065.732     -13038.066      10401.596      16604.795      10407.961      10348.902      10447.926    
       268   1.8142838      206.36603      27.288426     -13065.284     -13037.995      10553.133      16604.795      10553.49       10506.906      10599.005    
       269   1.8218742      203.47775      26.906499     -13064.832     -13037.925      10706.457      16604.795      10700.667      10666.786      10751.918    
       270   1.8286147      200.57261      26.522344     -13064.378     -13037.856      10860.93       16604.795      10848.884      10827.879      10906.028    
       271   1.8355268      197.66503      26.137865     -13063.924     -13037.786      11015.908      16604.795      10997.527      10989.512      11060.686    
       272   1.8420794      194.76953      25.754984     -13063.473     -13037.718      11170.741      16604.795      11145.975      11151.008      11215.24     
       273   1.8504712      191.90068      25.375628     -13063.025     -13037.65       11324.777      16604.795      11293.606      11311.69       11369.036    
       274   1.85734        189.07306      25.001722     -13062.584     -13037.582      11477.369      16604.795      11439.801      11470.883      11521.422    
       275   1.8639624      186.30111      24.635178     -13062.15      -13037.515      11627.872      16604.795      11583.945      11627.919      11671.752    
       276   1.8705978      183.59913      24.277887     -13061.726     -13037.448      11775.652      16604.795      11725.432      11782.136      11819.388    
       277   1.8778445      180.98117      23.931707     -13061.313     -13037.382      11920.086      16604.795      11863.667      11932.889      11963.7      
       278   1.8846345      178.461        23.598456     -13060.914     -13037.316      12060.565      16604.795      11998.068      12079.547      12104.079    
       279   1.8912951      176.05198      23.279904     -13060.53      -13037.25       12196.498      16604.795      12128.07       12221.496      12239.929    
       280   1.8981135      173.76702      22.977757     -13060.163     -13037.185      12327.318      16604.795      12253.13       12358.145      12370.677    
       281   1.9050243      171.61856      22.693659     -13059.813     -13037.12       12452.475      16604.795      12372.726      12488.929      12495.772    
       282   1.9119036      169.6184       22.429172     -13059.484     -13037.055      12571.452      16604.795      12486.359      12613.308      12614.689    
       283   1.9185651      167.77776      22.185778     -13059.176     -13036.99       12683.755      16604.795      12593.56       12730.772      12726.934    
       284   1.9254082      166.10711      21.964863     -13058.891     -13036.926      12788.925      16604.795      12693.89       12840.844      12832.041    
       285   1.9323065      164.6162       21.767715     -13058.629     -13036.862      12886.533      16604.795      12786.94       12943.081      12929.58     
       286   1.9390401      163.31395      21.595515     -13058.393     -13036.797      12976.188      16604.795      12872.335      13037.075      13019.154    
       287   1.9457927      162.20843      21.449327     -13058.182     -13036.733      13057.534      16604.795      12949.737      13122.458      13100.406    
       288   1.9526476      161.30679      21.330101     -13057.999     -13036.669      13130.254      16604.795      13018.844      13198.902      13173.015    
       289   1.9593762      160.61525      21.238657     -13057.843     -13036.604      13194.072      16604.795      13079.394      13266.119      13236.704    
       290   1.9660991      160.13905      21.175688     -13057.715     -13036.54       13248.755      16604.795      13131.166      13323.865      13291.234    
       291   1.9726252      159.8824       21.14175      -13057.616     -13036.475      13294.11       16604.795      13173.978      13371.939      13336.413    
       292   1.9794938      159.84847      21.137263     -13057.547     -13036.41       13329.99       16604.795      13207.692      13410.187      13372.092    
       293   1.9863147      160.03936      21.162506     -13057.507     -13036.344      13356.293      16604.795      13232.213      13438.499      13398.166    
       294   1.9930491      160.45611      21.217613     -13057.496     -13036.278      13372.961      16604.795      13247.492      13456.814      13414.577    
       295   1.9998568      161.09862      21.302575     -13057.514     -13036.212      13379.982      16604.795      13253.52       13465.114      13421.313    
       296   2.0065682      161.96574      21.417237     -13057.562     -13036.145      13377.392      16604.795      13250.336      13463.432      13418.409    
       297   2.013665       163.05519      21.561298     -13057.639     -13036.077      13365.271      16604.795      13238.022      13451.847      13405.944    
       298   2.0204133      164.36359      21.734311     -13057.743     -13036.009      13343.745      16604.795      13216.706      13430.484      13384.045    
       299   2.0271095      165.88648      21.935688     -13057.876     -13035.94       13312.986      16604.795      13186.558      13399.514      13352.884    
       300   2.0338552      167.61834      22.164697     -13058.035     -13035.87       13273.209      16604.795      13147.792      13359.158      13312.679    
       301   2.0406254      169.5526       22.42047      -13058.22      -13035.8        13224.676      16604.795      13100.664      13309.677      13263.688    
       302   2.0473098      171.68167      22.702004     -13058.43      -13035.728      13167.689      16604.795      13045.472      13251.379      13206.217    
       303   2.0539754      173.99698      23.008165     -13058.664     -13035.656      13102.593      16604.795      12982.553      13184.614      13140.611    
       304   2.0608456      176.48902      23.337695     -13058.92      -13035.582      13029.77       16604.795      12912.285      13109.772      13067.253    
       305   2.0676355      179.14739      23.68922      -13059.197     -13035.508      12949.644      16604.795      12835.078      13027.285      12986.569    
       306   2.0743754      181.96084      24.061251     -13059.494     -13035.433      12862.672      16604.795      12751.382      12937.62       12899.015    
       307   2.0810168      184.91732      24.452196     -13059.808     -13035.356      12769.347      16604.795      12661.675      12841.281      12805.087    
       308   2.0878376      188.00408      24.860367     -13060.139     -13035.279      12670.193      16604.795      12566.469      12738.804      12705.308    
       309   2.0946354      191.20767      25.283989     -13060.484     -13035.2        12565.763      16604.795      12466.302      12630.755      12600.231    
       310   2.1014968      194.51409      25.721207     -13060.842     -13035.12       12456.635      16604.795      12361.737      12517.73       12490.438    
       311   2.1083919      197.90878      26.170097     -13061.21      -13035.04       12343.413      16604.795      12253.361      12400.349      12376.531    
       312   2.1153478      201.37677      26.62868      -13061.587     -13034.958      12226.721      16604.795      12141.778      12279.251      12259.134    
       313   2.1222936      204.90269      27.094924     -13061.97      -13034.875      12107.198      16604.795      12027.609      12155.097      12138.887    
       314   2.1291704      208.47092      27.566762     -13062.358     -13034.791      11985.499      16604.795      11911.488      12028.563      12016.446    
       315   2.1357443      212.06562      28.0421       -13062.748     -13034.706      11862.29       16604.795      11794.06       11900.335      11892.476    
       316   2.1426046      215.67084      28.51883      -13063.139     -13034.62       11738.244      16604.795      11675.973      11771.108      11767.651    
       317   2.1494451      219.27061      28.994839     -13063.529     -13034.534      11614.037      16604.795      11557.882      11641.583      11642.646    
       318   2.1562169      222.849        29.46802      -13063.914     -13034.446      11490.346      16604.795      11440.438      11512.461      11518.139    
       319   2.1628041      226.39022      29.936287     -13064.294     -13034.358      11367.844      16604.795      11324.289      11384.44       11394.803    
       320   2.169384       229.87872      30.397582     -13064.666     -13034.269      11247.198      16604.795      11210.076      11258.213      11273.304    
       321   2.1763292      233.29925      30.849889     -13065.029     -13034.179      11129.062      16604.795      11098.427      11134.461      11154.3      
       322   2.1830435      236.63694      31.291243     -13065.38      -13034.089      11014.08       16604.795      10989.956      11013.853      11038.431    
       323   2.1897561      239.87741      31.71974      -13065.718     -13033.998      10902.875      16604.795      10885.26       10897.041      10926.325    
       324   2.1964042      243.0068       32.13355      -13066.041     -13033.907      10796.051      16604.795      10784.915      10784.654      10818.584    
       325   2.2033977      246.01188      32.530921     -13066.346     -13033.815      10694.188      16604.795      10689.472      10677.299      10715.791    
       326   2.2103164      248.8801       32.910194     -13066.634     -13033.724      10597.836      16604.795      10599.454      10575.556      10618.499    
       327   2.2173634      251.59965      33.269809     -13066.901     -13033.632      10507.521      16604.795      10515.355      10479.973      10527.234    
       328   2.2239662      254.15954      33.608311     -13067.148     -13033.539      10423.729      16604.795      10437.636      10391.066      10442.486    
       329   2.2307244      256.54962      33.924359     -13067.372     -13033.447      10346.917      16604.795      10366.723      10309.314      10364.713    
       330   2.2374221      258.76068      34.216735     -13067.572     -13033.355      10277.5        16604.795      10303.006      10235.158      10294.335    
       331   2.2441198      260.78445      34.484343     -13067.747     -13033.263      10215.855      16604.795      10246.833      10168.999      10231.733    
       332   2.2507065      262.61363      34.726222     -13067.897     -13033.171      10162.319      16604.795      10198.514      10111.196      10177.246    
       333   2.2572207      264.24198      34.941543     -13068.021     -13033.08       10117.182      16604.795      10158.315      10062.06       10131.171    
       334   2.2640349      265.66428      35.129619     -13068.118     -13032.988      10080.694      16604.795      10126.459      10021.862      10093.759    
       335   2.27093        266.87641      35.289902     -13068.187     -13032.898      10053.056      16604.795      10103.126      9990.8212      10065.22     
       336   2.2777598      267.87529      35.421988     -13068.229     -13032.807      10034.424      16604.795      10088.448      9969.1112      10045.713    
       337   2.284446       268.65898      35.525617     -13068.243     -13032.717      10024.909      16604.795      10082.514      9956.8573      10035.355    
       338   2.2910835      269.22658      35.600673     -13068.229     -13032.628      10024.572      16604.795      10085.368      9954.1357      10034.213    
       339   2.2980296      269.57833      35.647186     -13068.187     -13032.539      10033.43       16604.795      10097.006      9960.974       10042.31     
       340   2.3047177      269.7155       35.665325     -13068.117     -13032.451      10051.451      16604.795      10117.381      9977.352       10059.619    
       341   2.3114751      269.64045      35.655401     -13068.019     -13032.364      10078.558      16604.795      10146.402      10003.2        10086.072    
       342   2.3183106      269.35658      35.617863     -13067.895     -13032.277      10114.63       16604.795      10183.934      10038.404      10121.552    
       343   2.3254483      268.86827      35.553293     -13067.745     -13032.192      10159.499      16604.795      10229.799      10082.8        10165.899    
       344   2.3320913      268.18092      35.462403     -13067.569     -13032.106      10212.958      16604.795      10283.78       10136.183      10218.909    
       345   2.3387676      267.30086      35.346029     -13067.368     -13032.022      10274.753      16604.795      10345.618      10198.303      10280.339    
       346   2.3453297      266.23532      35.205129     -13067.144     -13031.938      10344.597      16604.795      10415.02       10268.867      10349.904    
       347   2.3518689      264.99238      35.040772     -13066.896     -13031.856      10422.16       16604.795      10491.653      10347.545      10427.282    
       348   2.3586013      263.58096      34.854134     -13066.628     -13031.774      10507.078      16604.795      10575.153      10433.967      10512.113    
       349   2.3652966      262.0107       34.646495     -13066.339     -13031.692      10598.953      16604.795      10665.123      10527.729      10604.005    
       350   2.3719426      260.29198      34.419223     -13066.031     -13031.612      10697.355      16604.795      10761.138      10628.394      10702.534    
       351   2.3787625      258.4358       34.173774     -13065.706     -13031.532      10801.828      16604.795      10862.747      10735.492      10807.245    
       352   2.3856418      256.45376      33.911683     -13065.365     -13031.453      10911.886      16604.795      10969.471      10848.529      10917.658    
       353   2.3925487      254.35798      33.634551     -13065.009     -13031.375      11027.022      16604.795      11080.815      10966.984      11033.269    
       354   2.399398       252.16103      33.344042     -13064.641     -13031.297      11146.708      16604.795      11196.26       11090.313      11153.551    
       355   2.4060315      249.8759       33.041872     -13064.262     -13031.22       11270.398      16604.795      11315.277      11217.955      11277.961    
       356   2.4129793      247.51587      32.729798     -13063.874     -13031.144      11397.53       16604.795      11437.319      11349.332      11405.939    
       357   2.4197574      245.09452      32.409615     -13063.478     -13031.068      11527.533      16604.795      11561.831      11483.853      11536.913    
       358   2.4263284      242.62559      32.083141     -13063.076     -13030.993      11659.824      16604.795      11688.252      11620.917      11670.303    
       359   2.4329231      240.12297      31.752211     -13062.671     -13030.919      11793.818      16604.795      11816.016      11759.918      11805.519    
       360   2.4394699      237.60059      31.418669     -13062.263     -13030.845      11928.924      16604.795      11944.556      11900.243      11941.973    
       361   2.4463135      235.07237      31.084354     -13061.856     -13030.771      12064.554      16604.795      12073.307      12041.282      12079.072    
       362   2.4530871      232.55215      30.751099     -13061.449     -13030.698      12200.122      16604.795      12201.708      12182.427      12216.23     
       363   2.4598584      230.05365      30.420713     -13061.046     -13030.625      12335.049      16604.795      12329.208      12323.074      12352.864    
       364   2.4665967      227.59033      30.094981     -13060.648     -13030.553      12468.765      16604.795      12455.262      12462.631      12488.402    
       365   2.4731851      225.17542      29.77565      -13060.257     -13030.481      12600.712      16604.795      12579.341      12600.513      12622.281    
       366   2.4800706      222.82178      29.46442      -13059.874     -13030.409      12730.347      16604.795      12700.931      12736.154      12753.955    
       367   2.4866874      220.54188      29.162943     -13059.501     -13030.338      12857.143      16604.795      12819.535      12869          12882.893    
       368   2.4931753      218.34775      28.872805     -13059.139     -13030.266      12980.594      16604.795      12934.676      12998.521      13008.584    
       369   2.4999364      216.25087      28.595529     -13058.791     -13030.195      13100.215      16604.795      13045.899      13124.206      13130.539    
       370   2.5067769      214.26218      28.332559     -13058.457     -13030.124      13215.544      16604.795      13152.773      13245.568      13248.29     
       371   2.5139264      212.39199      28.085258     -13058.139     -13030.053      13326.146      16604.795      13254.894      13362.146      13361.399    
       372   2.5206646      210.64995      27.854901     -13057.837     -13029.983      13431.615      16604.795      13351.885      13473.508      13469.452    
       373   2.5274342      209.04497      27.64267      -13057.554     -13029.912      13531.572      16604.795      13443.398      13579.251      13572.067    
       374   2.5328695      207.58524      27.449646     -13057.29      -13029.841      13625.67       16604.795      13529.115      13679.003      13668.891    
       375   2.5394311      206.27815      27.276805     -13057.047     -13029.77       13713.594      16604.795      13608.753      13772.426      13759.602    
       376   2.5461139      205.13025      27.125014     -13056.824     -13029.699      13795.063      16604.795      13682.059      13859.215      13843.915    
       377   2.5528836      204.14724      26.995029     -13056.622     -13029.627      13869.831      16604.795      13748.815      13939.101      13921.577    
       378   2.5596449      203.33397      26.887487     -13056.443     -13029.556      13937.686      16604.795      13808.839      14011.849      13992.369    
       379   2.5661902      202.69435      26.802908     -13056.287     -13029.484      13998.454      16604.795      13861.985      14077.265      14056.112    
       380   2.5730008      202.23139      26.741689     -13056.153     -13029.412      14051.997      16604.795      13908.141      14135.189      14112.661    
       381   2.5799563      201.94717      26.704105     -13056.043     -13029.339      14098.214      16604.795      13947.234      14185.502      14161.907    
       382   2.5866933      201.84283      26.690309     -13055.957     -13029.266      14137.044      16604.795      13979.225      14228.123      14203.783    
       383   2.5934519      201.91859      26.700327     -13055.893     -13029.193      14168.459      16604.795      14004.116      14263.009      14238.253    
       384   2.6002208      202.17371      26.734062     -13055.853     -13029.119      14192.473      16604.795      14021.941      14290.155      14265.324    
       385   2.6071789      202.60654      26.791296     -13055.836     -13029.045      14209.136      16604.795      14032.774      14309.598      14285.037    
       386   2.6141252      203.21449      26.871688     -13055.842     -13028.97       14218.534      16604.795      14036.723      14321.41       14297.471    
       387   2.6208034      203.99411      26.974779     -13055.87      -13028.895      14220.79       16604.795      14033.93       14325.701      14302.74     
       388   2.627547       204.94103      27.099993     -13055.919     -13028.819      14216.064      16604.795      14024.576      14322.619      14300.996    
       389   2.6344365      206.05005      27.246643     -13055.989     -13028.742      14204.547      16604.795      14008.871      14312.348      14292.422    
       390   2.6412721      207.31517      27.413933     -13056.079     -13028.665      14186.467      16604.795      13987.058      14295.107      14277.237    
       391   2.648024       208.72956      27.600962     -13056.188     -13028.587      14162.084      16604.795      13959.413      14271.147      14255.692    
       392   2.6545161      210.28568      27.806733     -13056.315     -13028.508      14131.686      16604.795      13926.238      14240.755      14228.067    
       393   2.6614057      211.97528      28.030154     -13056.459     -13028.429      14095.594      16604.795      13887.865      14204.245      14194.673    
       394   2.668074       213.78946      28.270049     -13056.619     -13028.349      14054.153      16604.795      13844.651      14161.961      14155.847    
       395   2.6745725      215.71872      28.525162     -13056.793     -13028.268      14007.736      16604.795      13796.978      14114.275      14111.954    
       396   2.6814932      217.75301      28.794162     -13056.981     -13028.187      13956.738      16604.795      13745.248      14061.585      14063.38     
       397   2.688358       219.88179      29.075657     -13057.18      -13028.104      13901.575      16604.795      13689.884      14004.308      14010.533    
       398   2.6951961      222.09409      29.368196     -13057.389     -13028.021      13842.684      16604.795      13631.326      13942.886      13953.841    
       399   2.701881       224.37858      29.670282     -13057.608     -13027.938      13780.517      16604.795      13570.028      13877.776      13893.748    
       400   2.7086407      226.72364      29.980376     -13057.833     -13027.853      13715.541      16604.795      13506.456      13809.453      13830.713    
       401   2.7155369      229.11739      30.296909     -13058.065     -13027.768      13648.232      16604.795      13441.088      13738.403      13765.205    
       402   2.7224969      231.5478       30.61829      -13058.301     -13027.682      13579.078      16604.795      13374.406      13665.126      13697.703    
       403   2.7291933      234.00274      30.942914     -13058.539     -13027.596      13508.572      16604.795      13306.9        13590.125      13628.691    
       404   2.7359311      236.47005      31.269175     -13058.778     -13027.509      13437.21       16604.795      13239.058      13513.913      13558.66     
       405   2.7426666      238.93762      31.595469     -13059.017     -13027.422      13365.489      16604.795      13171.368      13437.003      13488.097    
       406   2.7495733      241.39343      31.920209     -13059.254     -13027.334      13293.904      16604.795      13104.315      13359.907      13417.49     
       407   2.7565143      243.82566      32.241829     -13059.487     -13027.245      13222.945      16604.795      13038.377      13283.135      13347.322    
       408   2.7632673      246.2227       32.558798     -13059.715     -13027.156      13153.094      16604.795      12974.024      13207.192      13278.067    
       409   2.7698953      248.57329      32.869623     -13059.937     -13027.067      13084.824      16604.795      12911.711      13132.572      13210.189    
       410   2.7765381      250.86651      33.172863     -13060.151     -13026.978      13018.595      16604.795      12851.883      13059.761      13144.141    
       411   2.7833579      253.09189      33.467132     -13060.355     -13026.888      12954.851      16604.795      12794.964      12989.23       13080.359    
       412   2.7899756      255.23944      33.75111      -13060.549     -13026.798      12894.018      16604.795      12741.361      12921.432      13019.262    
       413   2.7966797      257.29974      34.023549     -13060.732     -13026.708      12836.504      16604.795      12691.46       12856.805      12961.249    
       414   2.803501       259.26393      34.283281     -13060.901     -13026.618      12782.693      16604.795      12645.622      12795.762      12906.697    
       415   2.8106794      261.12383      34.529221     -13061.057     -13026.528      12732.946      16604.795      12604.184      12738.696      12855.959    
       416   2.8176951      262.87192      34.760376     -13061.198     -13026.438      12687.597      16604.795      12567.454      12685.975      12809.362    
       417   2.8244297      264.50143      34.975851     -13061.323     -13026.348      12646.952      16604.795      12535.713      12637.937      12767.206    
       418   2.8311345      266.00634      35.17485      -13061.433     -13026.258      12611.288      16604.795      12509.211      12594.894      12729.761    
       419   2.8378632      267.38142      35.356681     -13061.525     -13026.168      12580.852      16604.795      12488.164      12557.125      12697.268    
       420   2.8444048      268.62226      35.520762     -13061.599     -13026.079      12555.858      16604.795      12472.758      12524.88       12669.936    
       421   2.8509084      269.72529      35.666619     -13061.656     -13025.989      12536.486      16604.795      12463.143      12498.373      12647.941    
       422   2.8576278      270.68778      35.793892     -13061.694     -13025.901      12522.883      16604.795      12459.436      12477.784      12631.428    
       423   2.8643852      271.50787      35.902334     -13061.714     -13025.812      12515.161      16604.795      12461.717      12463.259      12620.506    
       424   2.8713967      272.18453      35.991812     -13061.716     -13025.724      12513.397      16604.795      12470.032      12454.908      12615.251    
       425   2.8783986      272.71763      36.062306     -13061.699     -13025.636      12517.633      16604.795      12484.392      12452.802      12615.706    
       426   2.8852319      273.10787      36.113908     -13061.663     -13025.549      12527.875      16604.795      12504.769      12456.978      12621.879    
       427   2.8918521      273.35679      36.146823     -13061.61      -13025.463      12544.093      16604.795      12531.102      12467.434      12633.744    
       428   2.8985611      273.46674      36.161363     -13061.538     -13025.377      12566.224      16604.795      12563.296      12484.133      12651.243    
       429   2.9050878      273.44091      36.157946     -13061.449     -13025.291      12594.168      16604.795      12601.219      12507          12674.285    
       430   2.9120426      273.2832       36.137093     -13061.343     -13025.206      12627.793      16604.795      12644.708      12535.925      12702.746    
       431   2.918861       272.99831      36.099421     -13061.221     -13025.122      12666.934      16604.795      12693.567      12570.764      12736.472    
       432   2.9256741      272.5916       36.04564      -13061.084     -13025.038      12711.395      16604.795      12747.568      12611.335      12775.28     
       433   2.9325797      272.06912      35.976551     -13060.931     -13024.955      12760.947      16604.795      12806.454      12657.428      12818.958    
       434   2.9392084      271.43754      35.893035     -13060.765     -13024.872      12815.336      16604.795      12869.94       12708.8        12867.267    
       435   2.9458682      270.70408      35.796047     -13060.586     -13024.79       12874.278      16604.795      12937.715      12765.177      12919.942    
       436   2.9524422      269.87651      35.686615     -13060.395     -13024.709      12937.466      16604.795      13009.444      12826.257      12976.698    
       437   2.9591891      268.96307      35.565828     -13060.194     -13024.628      13004.569      16604.795      13084.768      12891.715      13037.223    
       438   2.9658193      267.97241      35.43483      -13059.982     -13024.548      13075.234      16604.795      13163.31       12961.199      13101.191    
       439   2.9724292      266.91355      35.294813     -13059.763     -13024.468      13149.09       16604.795      13244.676      13034.339      13168.255    
       440   2.979299       265.79581      35.147012     -13059.536     -13024.389      13225.75       16604.795      13328.454      13110.742      13238.054    
       441   2.9860852      264.62877      34.99269      -13059.303     -13024.31       13304.813      16604.795      13414.223      13190.001      13310.215    
       442   2.9925772      263.42218      34.83314      -13059.065     -13024.232      13385.866      16604.795      13501.55       13271.696      13384.353    
       443   2.9990419      262.18594      34.669667     -13058.823     -13024.154      13468.489      16604.795      13589.995      13355.395      13460.075    
       444   3.00567        260.93         34.503591     -13058.58      -13024.076      13552.253      16604.795      13679.116      13440.657      13536.985    
       445   3.0121449      259.66433      34.336227     -13058.336     -13023.999      13636.729      16604.795      13768.467      13527.038      13614.68     
       446   3.0183019      258.39885      34.168889     -13058.092     -13023.923      13721.486      16604.795      13857.605      13614.091      13692.762    
       447   3.0249603      257.14338      34.002874     -13057.849     -13023.847      13806.095      16604.795      13946.089      13701.368      13770.828    
       448   3.0308495      255.90757      33.839459     -13057.61      -13023.771      13890.133      16604.795      14033.488      13788.425      13848.485    
       449   3.0370319      254.70086      33.679891     -13057.375     -13023.695      13973.183      16604.795      14119.379      13874.825      13925.344    
       450   3.0440576      253.53241      33.525384     -13057.145     -13023.619      14054.839      16604.795      14203.35       13960.14       14001.026    
       451   3.0503493      252.41109      33.377108     -13056.921     -13023.544      14134.707      16604.795      14285.006      14043.952      14075.164    
       452   3.057175       251.34537      33.236185     -13056.705     -13023.469      14212.409      16604.795      14363.967      14125.859      14147.402    
       453   3.0637145      250.34333      33.103682     -13056.498     -13023.394      14287.583      16604.795      14439.874      14205.473      14217.402    
       454   3.0701889      249.41259      32.980607     -13056.3       -13023.319      14359.886      16604.795      14512.387      14282.428      14284.842    
       455   3.0763572      248.56026      32.867901     -13056.112     -13023.244      14428.995      16604.795      14581.192      14356.375      14349.419    
       456   3.0831458      247.79294      32.766435     -13055.936     -13023.17       14494.613      16604.795      14645.997      14426.991      14410.852    
       457   3.0898457      247.11665      32.677008     -13055.772     -13023.095      14556.465      16604.795      14706.539      14493.975      14468.88     
       458   3.0964028      246.53682      32.600335     -13055.62      -13023.02       14614.301      16604.795      14762.581      14557.054      14523.269    
       459   3.1033171      246.05827      32.537054     -13055.482     -13022.945      14667.901      16604.795      14813.917      14615.981      14573.805    
       460   3.1102124      245.68514      32.487715     -13055.358     -13022.87       14717.071      16604.795      14860.37       14670.538      14620.304    
       461   3.1174889      245.42095      32.45278      -13055.248     -13022.795      14761.645      16604.795      14901.792      14720.538      14662.606    
       462   3.1240651      245.26851      32.432622     -13055.152     -13022.72       14801.49       16604.795      14938.07       14765.823      14700.579    
       463   3.1307995      245.22994      32.427522     -13055.072     -13022.644      14836.502      16604.795      14969.12       14806.267      14734.117    
       464   3.1374753      245.30668      32.437669     -13055.006     -13022.568      14866.604      16604.795      14994.893      14841.774      14763.146    
       465   3.1437399      245.49944      32.463159     -13054.956     -13022.492      14891.756      16604.795      15015.369      14872.282      14787.616    
       466   3.1503998      245.80824      32.503993     -13054.92      -13022.416      14911.943      16604.795      15030.561      14897.76       14807.507    
       467   3.1569581      246.23241      32.560081     -13054.9       -13022.34       14927.184      16604.795      15040.515      14918.207      14822.829    
       468   3.163529       246.77055      32.631242     -13054.894     -13022.263      14937.526      16604.795      15045.308      14933.655      14833.616    
       469   3.1702602      247.42063      32.717203     -13054.903     -13022.185      14943.049      16604.795      15045.045      14944.167      14839.934    
       470   3.1773105      248.17989      32.817603     -13054.925     -13022.108      14943.856      16604.795      15039.863      14949.834      14841.871    
       471   3.1840822      249.04497      32.931995     -13054.962     -13022.03       14940.084      16604.795      15029.928      14950.778      14839.545    
       472   3.1908083      250.01185      33.05985      -13055.011     -13021.952      14931.893      16604.795      15015.431      14947.15       14833.097    
       473   3.1974297      251.07593      33.200556     -13055.073     -13021.873      14919.471      16604.795      14996.592      14939.126      14822.694    
       474   3.2042165      252.23202      33.353429     -13055.147     -13021.794      14903.028      16604.795      14973.653      14926.908      14808.524    
       475   3.2112223      253.47439      33.517712     -13055.232     -13021.714      14882.801      16604.795      14946.881      14910.723      14790.798    
       476   3.2182374      254.7968       33.692578     -13055.327     -13021.635      14859.044      16604.795      14916.563      14890.821      14769.748    
       477   3.2248338      256.19254      33.877141     -13055.431     -13021.554      14832.034      16604.795      14883.006      14867.472      14745.623    
       478   3.2315027      257.65447      34.070457     -13055.544     -13021.474      14802.063      16604.795      14846.535      14840.965      14718.69     
       479   3.2383658      259.17508      34.271531     -13055.664     -13021.393      14769.443      16604.795      14807.49       14811.606      14689.232    
[...]
       894   5.4358944      292.88823      38.729527     -13050.075     -13011.346      16789.853      16604.795      16653.136      16758.378      16958.044    
       895   5.4396866      294.94278      39.001207     -13050.368     -13011.366      16718.106      16604.795      16580.569      16687.827      16885.923    
       896   5.4434718      297.03011      39.277221     -13050.665     -13011.387      16645.476      16604.795      16507.288      16615.726      16813.414    
       897   5.4472686      299.1415       39.556416     -13050.965     -13011.408      16572.215      16604.795      16433.553      16542.327      16740.766    
       898   5.4510594      301.26815      39.83763      -13051.267     -13011.429      16498.579      16604.795      16359.624      16467.888      16668.224    
       899   5.4548267      303.40127      40.119699     -13051.57      -13011.45       16424.822      16604.795      16285.761      16392.67       16596.034    
       900   5.4586153      305.53205      40.401459     -13051.873     -13011.472      16351.199      16604.795      16212.226      16316.934      16524.437    
       901   5.4625451      307.65176      40.681754     -13052.175     -13011.494      16277.965      16604.795      16139.277      16240.946      16453.671    
       902   5.4663991      309.75174      40.959442     -13052.475     -13011.516      16205.371      16604.795      16067.17       16164.971      16383.972    
       903   5.4702197      311.82348      41.233395     -13052.772     -13011.538      16133.669      16604.795      15996.16       16089.276      16315.57     
       904   5.4740362      313.85864      41.502509     -13053.064     -13011.561      16063.102      16604.795      15926.494      16014.123      16248.69     
       905   5.4778396      315.84905      41.765708     -13053.35      -13011.585      15993.914      16604.795      15858.415      15939.776      16183.552    
       906   5.4816303      317.78682      42.021945     -13053.631     -13011.609      15926.34       16604.795      15792.161      15866.49       16120.37     
       907   5.4854138      319.66429      42.270209     -13053.903     -13011.633      15860.61       16604.795      15727.96       15794.52       16059.349    
       908   5.4892256      321.47413      42.509529     -13054.168     -13011.659      15796.944      16604.795      15666.033      15724.112      16000.687    
       909   5.4930191      323.20931      42.738978     -13054.424     -13011.685      15735.556      16604.795      15606.59       15655.505      15944.573    
       910   5.4968347      324.86319      42.957675     -13054.669     -13011.712      15676.65       16604.795      15549.833      15588.931      15891.187    
       911   5.5006562      326.42947      43.16479      -13054.904     -13011.739      15620.419      16604.795      15495.95       15524.608      15840.697    
       912   5.5044448      327.90228      43.359544     -13055.127     -13011.768      15567.042      16604.795      15445.118      15462.749      15793.261    
       913   5.5082346      329.27615      43.541216     -13055.338     -13011.797      15516.689      16604.795      15397.498      15403.548      15749.022    
       914   5.511993       330.54609      43.709143     -13055.537     -13011.828      15469.515      16604.795      15353.24       15347.192      15708.112    
       915   5.515793       331.70752      43.862723     -13055.722     -13011.859      15425.658      16604.795      15312.477      15293.848      15670.648    
       916   5.5195666      332.75637      44.001416     -13055.893     -13011.891      15385.243      16604.795      15275.326      15243.671      15636.733    
       917   5.5233259      333.68905      44.124747     -13056.05      -13011.925      15348.38       16604.795      15241.889      15196.799      15606.451    
       918   5.5271016      334.50245      44.232305     -13056.192     -13011.959      15315.159      16604.795      15212.25       15153.353      15579.874    
       919   5.5308801      335.19399      44.32375      -13056.319     -13011.995      15285.656      16604.795      15186.477      15113.437      15557.054    
       920   5.5346413      335.76159      44.398806     -13056.43      -13012.031      15259.928      16604.795      15164.62       15077.138      15538.026    
       921   5.5384214      336.20371      44.457268     -13056.526     -13012.069      15238.016      16604.795      15146.713      15044.525      15522.809    
       922   5.5422141      336.5193       44.499        -13056.607     -13012.108      15219.941      16604.795      15132.771      15015.647      15511.403    
       923   5.5459853      336.70786      44.523934     -13056.671     -13012.148      15205.709      16604.795      15122.794      14990.539      15503.792    
       924   5.5497586      336.76941      44.532073     -13056.72      -13012.188      15195.307      16604.795      15116.764      14969.216      15499.942    
       925   5.553535       336.70448      44.523487     -13056.754     -13012.23       15188.708      16604.795      15114.648      14951.676      15499.8      
       926   5.5573231      336.51412      44.498315     -13056.771     -13012.273      15185.866      16604.795      15116.396      14937.902      15503.301    
       927   5.5611022      336.19988      44.456762     -13056.773     -13012.317      15186.721      16604.795      15121.944      14927.857      15510.361    
       928   5.5648648      335.76382      44.399101     -13056.761     -13012.361      15191.196      16604.795      15131.214      14921.493      15520.88     
       929   5.5686376      335.20847      44.325665     -13056.733     -13012.407      15199.201      16604.795      15144.112      14918.743      15534.747    
       930   5.5723949      334.53684      44.236853     -13056.69      -13012.453      15210.633      16604.795      15160.534      14919.529      15551.834    
       931   5.5762017      333.75239      44.133122     -13056.634     -13012.501      15225.374      16604.795      15180.362      14923.758      15572.004    
       932   5.5799659      332.85901      44.014988     -13056.564     -13012.549      15243.297      16604.795      15203.465      14931.322      15595.104    
       933   5.5837334      331.861        43.883019     -13056.481     -13012.597      15264.261      16604.795      15229.705      14942.104      15620.973    
       934   5.5875012      330.76309      43.737838     -13056.385     -13012.647      15288.115      16604.795      15258.929      14955.976      15649.441    
       935   5.5912786      329.57032      43.580115     -13056.277     -13012.697      15314.7        16604.795      15290.979      14972.795      15680.325    
       936   5.5950653      328.28813      43.410566     -13056.158     -13012.747      15343.844      16604.795      15325.682      14992.413      15713.438    
       937   5.5988724      326.92223      43.229949     -13056.028     -13012.798      15375.372      16604.795      15362.863      15014.67       15748.584    
       938   5.6026666      325.47865      43.03906      -13055.889     -13012.85       15409.097      16604.795      15402.334      15039.397      15785.561    
       939   5.6064252      323.96365      42.838727     -13055.74      -13012.901      15444.827      16604.795      15443.902      15066.421      15824.159    
       940   5.6102205      322.38374      42.629811     -13055.583     -13012.953      15482.364      16604.795      15487.366      15095.557      15864.168    
       941   5.6139892      320.74562      42.413197     -13055.418     -13013.005      15521.502      16604.795      15532.519      15126.618      15905.369    
       942   5.6177918      319.05614      42.189791     -13055.247     -13013.058      15562.034      16604.795      15579.148      15159.408      15947.544    
       943   5.6215567      317.32229      41.960519     -13055.07      -13013.11       15603.745      16604.795      15627.034      15193.729      15990.47     
       944   5.6253166      315.55115      41.726316     -13054.888     -13013.162      15646.419      16604.795      15675.954      15229.378      16033.924    
       945   5.6290737      313.74989      41.488129     -13054.703     -13013.214      15689.837      16604.795      15725.681      15266.149      16077.68     
       946   5.6328338      311.92566      41.246906     -13054.514     -13013.267      15733.777      16604.795      15775.982      15303.834      16121.515    
       947   5.6366142      310.08566      41.003596     -13054.322     -13013.319      15778.018      16604.795      15826.626      15342.223      16165.205    
       948   5.6404007      308.23701      40.759144     -13054.129     -13013.37       15822.338      16604.795      15877.376      15381.108      16208.528    
       949   5.6441822      306.3868       40.514484     -13053.936     -13013.422      15866.514      16604.795      15927.996      15420.281      16251.266    
       950   5.6479489      304.54198      40.270539     -13053.743     -13013.473      15910.329      16604.795      15978.25       15459.533      16293.204    
       951   5.6517256      302.70941      40.028212     -13053.552     -13013.524      15953.565      16604.795      16027.902      15498.662      16334.131    
       952   5.6554816      300.89576      39.788388     -13053.362     -13013.574      15996.01       16604.795      16076.718      15537.468      16373.843    
       953   5.6592771      299.10752      39.551923     -13053.176     -13013.624      16037.455      16604.795      16124.469      15575.755      16412.141    
       954   5.6630549      297.35096      39.319648     -13052.993     -13013.673      16077.699      16604.795      16170.929      15613.333      16448.836    
       955   5.6668428      295.63212      39.09236      -13052.814     -13013.722      16116.548      16604.795      16215.877      15650.021      16483.746    
       956   5.670595       293.95674      38.87082      -13052.641     -13013.77       16153.813      16604.795      16259.1        15685.641      16516.698    
       957   5.6743669      292.33031      38.655752     -13052.473     -13013.818      16189.317      16604.795      16300.391      15720.028      16547.531    
       958   5.6781605      290.75798      38.447837     -13052.312     -13013.865      16222.891      16604.795      16339.554      15753.023      16576.094    
       959   5.6819316      289.24457      38.247715     -13052.159     -13013.911      16254.377      16604.795      16376.403      15784.479      16602.25     
       960   5.6856936      287.79457      38.055976     -13052.012     -13013.956      16283.63       16604.795      16410.761      15814.256      16625.872    
       961   5.689467       286.41208      37.873165     -13051.874     -13014.001      16310.515      16604.795      16442.466      15842.229      16646.849    
       962   5.6932548      285.10084      37.699776     -13051.745     -13014.045      16334.911      16604.795      16471.368      15868.282      16665.082    
       963   5.6970477      283.8642       37.536251     -13051.625     -13014.089      16356.71       16604.795      16497.331      15892.311      16680.488    
       964   5.7008097      282.70509      37.382979     -13051.515     -13014.132      16375.819      16604.795      16520.235      15914.224      16692.997    
       965   5.7045761      281.62607      37.240296     -13051.414     -13014.174      16392.158      16604.795      16539.977      15933.941      16702.557    
       966   5.7083535      280.62926      37.108485     -13051.323     -13014.215      16405.665      16604.795      16556.468      15951.397      16709.129    
       967   5.7121297      279.71637      36.987771     -13051.243     -13014.255      16416.288      16604.795      16569.638      15966.537      16712.69     
       968   5.7159244      278.88871      36.878327     -13051.173     -13014.295      16423.996      16604.795      16579.435      15979.319      16713.234    
       969   5.719708       278.14716      36.780269     -13051.114     -13014.334      16428.768      16604.795      16585.824      15989.714      16710.766    
       970   5.7234842      277.49218      36.693659     -13051.066     -13014.372      16430.603      16604.795      16588.791      15997.707      16705.312    
       971   5.7272688      276.92385      36.618507     -13051.028     -13014.41       16429.513      16604.795      16588.337      16003.293      16696.909    
       972   5.7310403      276.44182      36.554766     -13051.001     -13014.447      16425.526      16604.795      16584.485      16006.482      16685.611    
       973   5.7348086      276.04535      36.502341     -13050.985     -13014.483      16418.684      16604.795      16577.274      16007.296      16671.483    
       974   5.7386056      275.73334      36.461082     -13050.979     -13014.518      16409.046      16604.795      16566.764      16005.767      16654.608    
       975   5.7423811      275.50429      36.430794     -13050.983     -13014.553      16396.684      16604.795      16553.031      16001.942      16635.079    
       976   5.7461531      275.35635      36.411231     -13050.998     -13014.586      16381.683      16604.795      16536.169      15995.878      16613.003    
       977   5.7499192      275.28732      36.402103     -13051.022     -13014.62       16364.144      16604.795      16516.29       15987.643      16588.5      
       978   5.7536921      275.29468      36.403076     -13051.055     -13014.652      16344.179      16604.795      16493.521      15977.317      16561.699    
       979   5.7574663      275.37558      36.413775     -13051.098     -13014.684      16321.912      16604.795      16468.006      15964.99       16532.74     
       980   5.7612578      275.5269       36.433784     -13051.149     -13014.715      16297.479      16604.795      16439.901      15950.762      16501.775    
       981   5.7650421      275.74523      36.462655     -13051.209     -13014.746      16271.029      16604.795      16409.38       15934.745      16468.963    
       982   5.7688167      276.02692      36.499903     -13051.276     -13014.776      16242.719      16604.795      16376.626      15917.057      16434.472    
       983   5.7725786      276.36807      36.545014     -13051.35      -13014.805      16212.713      16604.795      16341.836      15897.827      16398.477    
       984   5.7763826      276.76459      36.597448     -13051.432     -13014.834      16181.188      16604.795      16305.215      15877.189      16361.159    
       985   5.7801791      277.21222      36.656639     -13051.519     -13014.862      16148.324      16604.795      16266.979      15855.289      16322.704    
       986   5.7839393      277.70653      36.722003     -13051.612     -13014.89       16114.309      16604.795      16227.351      15832.274      16283.303    
       987   5.7877243      278.24296      36.792937     -13051.71      -13014.917      16079.336      16604.795      16186.56       15808.3        16243.149    
       988   5.7914839      278.81688      36.868828     -13051.813     -13014.944      16043.602      16604.795      16144.841      15783.526      16202.439    
       989   5.7952597      279.42355      36.949051     -13051.919     -13014.97       16007.306      16604.795      16102.432      15758.116      16161.37     
       990   5.7990462      280.05823      37.032976     -13052.029     -13014.996      15970.648      16604.795      16059.572      15732.235      16120.137    
       991   5.8028212      280.71613      37.119973     -13052.141     -13015.021      15933.828      16604.795      16016.501      15706.049      16078.935    
       992   5.8065779      281.39251      37.209412     -13052.255     -13015.046      15897.047      16604.795      15973.46       15679.725      16037.958    
       993   5.810351       282.08265      37.300671     -13052.371     -13015.07       15860.502      16604.795      15930.684      15653.429      15997.393    
       994   5.8141221      282.78192      37.393138     -13052.487     -13015.094      15824.385      16604.795      15888.405      15627.325      15957.423    
       995   5.8179121      283.48579      37.486213     -13052.604     -13015.117      15788.883      16604.795      15846.851      15601.572      15918.226    
       996   5.8216703      284.18986      37.579314     -13052.72      -13015.141      15754.18       16604.795      15806.242      15576.326      15879.972    
       997   5.8254362      284.88988      37.67188      -13052.835     -13015.163      15720.447      16604.795      15766.787      15551.734      15842.821    
       998   5.8292076      285.5818       37.763375     -13052.949     -13015.186      15687.851      16604.795      15728.689      15527.939      15806.926    
       999   5.8329862      286.26175      37.853287     -13053.061     -13015.208      15656.546      16604.795      15692.138      15505.073      15772.428    
      1000   5.8367789      286.9261       37.941136     -13053.171     -13015.23       15626.677      16604.795      15657.312      15483.261      15739.457    
Loop time of 5.8368 on 16 procs for 1000 steps with 1024 atoms

Performance: 14.803 ns/day, 1.621 hours/ns, 171.327 timesteps/s
99.2% CPU use with 16 MPI tasks x 1 OpenMP threads

MPI task timing breakdown:
Section |  min time  |  avg time  |  max time  |%varavg| %total
---------------------------------------------------------------
Pair    | 5.1124     | 5.1969     | 5.2996     |   1.8 | 89.04
Neigh   | 0          | 0          | 0          |   0.0 |  0.00
Comm    | 0.14301    | 0.29108    | 0.38408    |   9.5 |  4.99
Output  | 0.29597    | 0.29791    | 0.31992    |   1.0 |  5.10
Modify  | 0.014212   | 0.016829   | 0.018913   |   1.4 |  0.29
Other   |            | 0.03404    |            |       |  0.58

Nlocal:             64 ave          64 max          64 min
Histogram: 16 0 0 0 0 0 0 0 0 0
Nghost:            887 ave         887 max         887 min
Histogram: 16 0 0 0 0 0 0 0 0 0
Neighs:              0 ave           0 max           0 min
Histogram: 16 0 0 0 0 0 0 0 0 0
FullNghs:         5632 ave        5632 max        5632 min
Histogram: 16 0 0 0 0 0 0 0 0 0

Total # of neighbors = 90112
Ave neighs/atom = 88
Neighbor list builds = 0
Dangerous builds = 0


--------------------------------------------------------------------------

                               FLOPs Report

--------------------------------------------------------------------------
         alloc:     0.0000 GFlops,       0.0001 secs,       0.0000 GFLOP/s
         setup:     0.0000 GFlops,       0.2414 secs,       0.0000 GFLOP/s
   fnn->interp:     3.4243 GFlops,       2.0226 secs,       1.6930 GFLOP/s
             P:     7.2090 GFlops,       0.4948 secs,      14.5707 GFLOP/s
             Q:     0.4506 GFlops,       0.0843 secs,       5.3432 GFLOP/s
             G:     0.0020 GFlops,       0.0114 secs,       0.1789 GFLOP/s
   nn->compute:    12.7224 GFlops,       0.4683 secs,      27.1684 GFLOP/s
          dEdP:     0.4547 GFlops,       0.1042 secs,       4.3618 GFLOP/s
            UV:    14.4179 GFlops,       0.9698 secs,      14.8666 GFLOP/s
            F1:     0.3773 GFlops,       0.3567 secs,       1.0580 GFLOP/s
            F2:     0.2422 GFlops,       0.3743 secs,       0.6470 GFLOP/s
        forces:     0.0676 GFlops,       0.0413 secs,       1.6359 GFLOP/s
--------------------------------------------------------------------------
       Overall:    39.3679 GFlops,       5.1693 secs,       7.6157 GFLOP/s
--------------------------------------------------------------------------

Total wall time: 0:00:06
