LAMMPS (4 May 2022)
  using 1 OpenMP thread(s) per MPI task
variable                    T equal 300
variable                    R equal 984523

units		                metal
dimension                   3
boundary	                p p p
atom_style	                atomic

lattice                     bcc 3.189
Lattice spacing in x,y,z = 3.189 3.189 3.189
region                      box block 0 8 0 8 0 8
create_box                  1 box
Created orthogonal box = (0 0 0) to (25.512 25.512 25.512)
  2 by 2 by 4 MPI processor grid
create_atoms                1 box
Created 1024 atoms
  using lattice units in orthogonal box = (0 0 0) to (25.512 25.512 25.512)
  create_atoms CPU = 0.003 seconds

pair_style	                tensormd
pair_coeff	                * * ../../../W_k32_snapshot.npz W interp 0.0005 1
Use interpolation: dr = 0.0005, algo = batch

mass                        1 183.8

neighbor                    1.0 bin
neigh_modify                every 1 delay 0 check yes

thermo                      1
thermo_style                custom step cpu temp ke pe etotal press vol pxx pyy pzz

velocity                    all create $T $R dist gaussian
velocity                    all create 300 $R dist gaussian
velocity                    all create 300 984523 dist gaussian
fix                         1 all nvt temp $T $T 0.1
fix                         1 all nvt temp 300 $T 0.1
fix                         1 all nvt temp 300 300 0.1
dump                        1 all custom 1 dump.fnn id type x y z fx fy fz

run                         1000
Neighbor list info ...
  update every 1 steps, delay 0 steps, check yes
  max neighbors/atom: 2000, page size: 100000
  master list distance cutoff = 7
  ghost atom cutoff = 7
  binsize = 3.5, bins = 8 8 8
  1 neighbor lists, perpetual/occasional/extra = 1 0 0
  (1) pair tensormd, perpetual
      attributes: full, newton on
      pair build: full/bin/atomonly
      stencil: full/bin/3d
      bin: standard
Per MPI rank memory allocation (min/avg/max) = 23.85 | 23.85 | 23.85 Mbytes
   Step          CPU            Temp          KinEng         PotEng         TotEng         Press          Volume          Pxx            Pyy            Pzz      
         0   0              300            39.669939     -13091.707     -13052.037      1554.3025      16604.795      1710.6261      1324.9548      1627.3265    
         1   0.004455567    299.73964      39.63551      -13091.672     -13052.037      1566.1585      16604.795      1722.5802      1336.8248      1639.0706    
         2   0.008904992    298.95966      39.53237      -13091.569     -13052.037      1602.4069      16604.795      1759.1238      1373.1134      1674.9835    
         3   0.013436818    297.66326      39.360945     -13091.397     -13052.036      1662.6212      16604.795      1819.84        1433.3897      1734.634     
         4   0.018094198    295.85576      39.121933     -13091.158     -13052.036      1746.508       16604.795      1904.4305      1517.3685      1817.725     
         5   0.0225704      293.5445       38.816308     -13090.852     -13052.036      1853.6546      16604.795      2012.5038      1624.6289      1923.8311    
         6   0.027081207    290.73886      38.445308     -13090.481     -13052.036      1983.5489      16604.795      2143.5313      1754.6613      2052.4542    
         7   0.031634706    287.45017      38.010435     -13090.045     -13052.035      2135.5702      16604.795      2296.8946      1906.8559      2202.9601    
         8   0.036229481    283.69174      37.513447     -13089.547     -13052.034      2308.996       16604.795      2471.8735      2080.4875      2374.6268    
         9   0.042772803    279.47874      36.956348     -13088.989     -13052.032      2503.0139      16604.795      2667.6496      2274.7491      2566.6431    
        10   0.049101229    274.82815      36.341386     -13088.372     -13052.03       2716.7075      16604.795      2883.2977      2488.7314      2778.0935    
        11   0.055981741    269.7587       35.671037     -13087.699     -13052.028      2949.0955      16604.795      3117.8351      2721.4525      3007.9987    
        12   0.061889837    264.29079      34.947998     -13086.973     -13052.025      3199.0995      16604.795      3370.17        2971.8508      3255.2777    
        13   0.069228922    258.44639      34.175174     -13086.196     -13052.021      3465.584       16604.795      3639.1619      3238.7849      3518.8051    
        14   0.075983352    252.24894      33.355667     -13085.371     -13052.016      3747.3307      16604.795      3923.577       3521.0502      3797.3649    
        15   0.08078727     245.72328      32.492758     -13084.503     -13052.01       4043.0885      16604.795      4222.1484      3817.3992      4089.7179    
        16   0.085879915    238.8955       31.589899     -13083.593     -13052.003      4351.5383      16604.795      4533.541       4126.5201      4394.5539    
        17   0.091092389    231.79284      30.650692     -13082.646     -13051.995      4671.318       16604.795      4856.3913      4447.0541      4710.5087    
        18   0.096160346    224.44357      29.678876     -13081.665     -13051.986      5001.0367      16604.795      5189.2775      4777.6204      5036.2122    
        19   0.10095911     216.87687      28.678307     -13080.654     -13051.976      5339.2714      16604.795      5530.7657      5116.7989      5370.2495    
        20   0.10779045     209.12267      27.652945     -13079.617     -13051.964      5684.584       16604.795      5879.4005      5463.1535      5711.198     
        21   0.11323012     201.21155      26.606832     -13078.558     -13051.952      6035.498       16604.795      6233.6825      5815.2146      6057.5968    
        22   0.11898908     193.17457      25.544078     -13077.482     -13051.937      6390.571       16604.795      6592.1527      6171.5409      6408.0194    
        23   0.12495929     185.04316      24.468835     -13076.391     -13051.922      6748.3173      16604.795      6953.3058      6530.6536      6760.9924    
        24   0.1309878      176.84894      23.385289     -13075.291     -13051.906      7107.2857      16604.795      7315.6717      6891.0983      7115.0872    
        25   0.13953135     168.62363      22.29763      -13074.186     -13051.888      7466.0237      16604.795      7677.7805      7251.4253      7468.8651    
        26   0.14622373     160.39886      21.210043     -13073.079     -13051.869      7823.1022      16604.795      8038.1787      7610.2025      7820.9254    
        27   0.15299041     152.20605      20.126682     -13071.976     -13051.85       8177.1079      16604.795      8395.4395      7966.0134      8169.8707    
        28   0.16147944     144.07628      19.051658     -13070.881     -13051.829      8526.6643      16604.795      8748.1627      8317.4851      8514.345     
        29   0.16867715     136.04016      17.989016     -13069.797     -13051.808      8870.432       16604.795      9094.9894      8663.2656      8853.0412    
        30   0.17551855     128.12768      16.942724     -13068.728     -13051.786      9207.0964      16604.795      9434.5912      9002.0508      9184.6474    
        31   0.182098       120.3681       15.916651     -13067.68      -13051.763      9535.4002      16604.795      9765.6882      9332.5705      9507.9419    
        32   0.1884815      112.78986      14.914556     -13066.655     -13051.74       9854.1277      16604.795      10087.05       9653.5982      9821.7354    
        33   0.19451254     105.42042      13.940072     -13065.657     -13051.717      10162.114      16604.795      10397.493      9963.9668      10124.881    
        34   0.20015469     98.286201      12.996692     -13064.69      -13051.694      10458.257      16604.795      10695.9        10262.57       10416.3      
        35   0.20518881     91.412481      12.087758     -13063.758     -13051.671      10741.512      16604.795      10981.218      10548.351      10694.967    
        36   0.20998093     84.823308      11.216451     -13062.864     -13051.648      11010.889      16604.795      11252.431      10820.315      10959.921    
        37   0.21481958     78.541429      10.385779     -13062.011     -13051.626      11265.477      16604.795      11508.615      11077.542      11210.274    
        38   0.21970997     72.58822       9.5985674     -13061.202     -13051.604      11504.422      16604.795      11748.917      11319.161      11445.189    
        39   0.22453304     66.983627      8.8574545     -13060.44      -13051.583      11726.948      16604.795      11972.531      11544.399      11663.913    
        40   0.22920865     61.746108      8.1648811     -13059.727     -13051.563      11932.348      16604.795      12178.756      11752.528      11865.758    
        41   0.23416884     56.892585      7.5230845     -13059.066     -13051.543      12120.002      16604.795      12366.952      11942.93       12050.125    
        42   0.23932915     52.438389      6.9340922     -13058.459     -13051.525      12289.357      16604.795      12536.556      12115.034      12216.48     
        43   0.24527135     48.397211      6.3997147     -13057.907     -13051.508      12439.943      16604.795      12687.095      12268.368      12364.365    
        44   0.25077386     44.781057      5.9215393     -13057.413     -13051.491      12571.364      16604.795      12818.165      12402.513      12493.413    
        45   0.25687601     41.600189      5.5009232     -13056.977     -13051.476      12683.319      16604.795      12929.466      12517.174      12603.318    
        46   0.26304195     38.863078      5.1389864     -13056.601     -13051.462      12775.587      16604.795      13020.764      12612.112      12693.886    
        47   0.26921059     36.57635       4.8366052     -13056.285     -13051.448      12848.024      16604.795      13091.913      12687.176      12764.981    
        48   0.27534477     34.74474       4.5944057     -13056.03      -13051.435      12900.555      16604.795      13142.84       12742.287      12816.539    
        49   0.28160918     33.371051      4.4127584     -13055.836     -13051.423      12933.231      16604.795      13173.594      12777.478      12848.621    
        50   0.28923725     32.456121      4.2917744     -13055.703     -13051.411      12946.145      16604.795      13184.27       12792.846      12861.319    
        51   0.2952327      31.998808      4.2313025     -13055.631     -13051.4        12939.48       16604.795      13175.05       12788.562      12854.827    
        52   0.30123389     31.995987      4.2309294     -13055.62      -13051.389      12913.514      16604.795      13146.217      12764.903      12829.423    
        53   0.30713053     32.442565      4.2899819     -13055.668     -13051.378      12868.588      16604.795      13098.115      12722.2        12785.449    
        54   0.31297722     33.331518      4.4075309     -13055.775     -13051.367      12805.119      16604.795      13031.163      12660.872      12723.322    
        55   0.31910066     34.65394       4.5823988     -13055.938     -13051.356      12723.613      16604.795      12945.887      12581.412      12643.541    
        56   0.32535079     36.399109      4.8131681     -13056.157     -13051.344      12624.626      16604.795      12842.83       12484.387      12546.661    
        57   0.33143926     38.554575      5.0981921     -13056.43      -13051.332      12508.801      16604.795      12722.662      12370.422      12433.318    
        58   0.33735545     41.106245      5.4356073     -13056.755     -13051.319      12376.828      16604.795      12586.071      12240.224      12304.189    
        59   0.34324199     44.038487      5.8233469     -13057.129     -13051.306      12229.477      16604.795      12433.851      12094.546      12160.035    
        60   0.34920827     47.33424       6.2591546     -13057.551     -13051.292      12067.557      16604.795      12266.809      11934.211      12001.652    
        61   0.35573425     50.975121      6.7405998     -13058.017     -13051.276      11891.943      16604.795      12085.842      11760.084      11829.903    
        62   0.36197605     54.941546      7.2650925     -13058.525     -13051.26       11703.564      16604.795      11891.893      11573.102      11645.697    
        63   0.36811007     59.21284       7.8298991     -13059.072     -13051.242      11503.376      16604.795      11685.928      11374.22       11449.98     
        64   0.37420318     63.767361      8.4321577     -13059.655     -13051.223      11292.394      16604.795      11468.985      11164.448      11243.75     
        65   0.38006018     68.582615      9.0688937     -13060.271     -13051.202      11071.665      16604.795      11242.126      10944.84       11028.029    
        66   0.38596496     73.635372      9.7370356     -13060.916     -13051.179      10842.261      16604.795      11006.435      10716.476      10803.871    
        67   0.39204044     78.901788      10.43343      -13061.589     -13051.155      10605.288      16604.795      10763.049      10480.452      10572.362    
        68   0.39842289     84.357517      11.154858     -13062.284     -13051.129      10361.864      16604.795      10513.099      10237.896      10334.598    
        69   0.4045364      89.977832      11.89805      -13062.999     -13051.101      10113.138      16604.795      10257.756      9989.958       10091.7      
        70   0.41034076     95.737737      12.6597       -13063.731     -13051.071      9860.2638      16604.795      9998.2024      9737.7822      9844.8067    
        71   0.41607571     101.61208      13.436483     -13064.476     -13051.039      9604.4055      16604.795      9735.6067      9482.5467      9595.063     
        72   0.42221289     107.57567      14.225068     -13065.23      -13051.005      9346.7141      16604.795      9471.158       9225.392       9343.5923    
        73   0.42815319     113.6034       15.022132     -13065.991     -13050.969      9088.3561      16604.795      9206.0379      8967.4949      9091.5357    
        74   0.43411532     119.67031      15.824379     -13066.755     -13050.93       8830.4689      16604.795      8941.4134      8709.9832      8840.0102    
        75   0.43987344     125.75177      16.62855      -13067.518     -13050.89       8574.1967      16604.795      8678.4456      8454.0096      8590.1349    
        76   0.44603028     131.82352      17.431436     -13068.278     -13050.847      8320.6446      16604.795      8418.2655      8200.666       8343.0022    
        77   0.45227433     137.86181      18.229899     -13069.032     -13050.802      8070.8977      16604.795      8161.9828      7951.0506      8099.6596    
        78   0.4584686      143.8435       19.020876     -13069.775     -13050.754      7826.0169      16604.795      7910.675       7706.2118      7861.1639    
        79   0.46420618     149.74612      19.801398     -13070.506     -13050.705      7587.0243      16604.795      7665.3941      7467.1768      7628.5019    
        80   0.4701657      155.548        20.568599     -13071.222     -13050.654      7354.8911      16604.795      7427.1339      7234.9101      7402.6294    
        81   0.47621113     161.22835      21.319729     -13071.92      -13050.6        7130.559       16604.795      7196.8539      7010.3467      7184.4764    
        82   0.48216136     166.76733      22.052166     -13072.597     -13050.545      6914.9146      16604.795      6975.4606      6794.3854      6974.8977    
        83   0.487944       172.14613      22.763421     -13073.252     -13050.488      6708.7825      16604.795      6763.8049      6587.835       6774.7076    
        84   0.49362534     177.34703      23.451153     -13073.881     -13050.43       6512.9513      16604.795      6562.6938      6391.4861      6584.6739    
        85   0.49973396     182.35349      24.113172     -13074.483     -13050.37       6328.1202      16604.795      6372.8463      6206.0305      6405.4838    
        86   0.50572621     187.15016      24.747451     -13075.056     -13050.308      6154.9541      16604.795      6194.9432      6032.1373      6237.7818    
        87   0.51151293     191.72296      25.352127     -13075.597     -13050.245      5994.0291      16604.795      6029.584       5870.3635      6082.1398    
        88   0.51744362     196.05913      25.925513     -13076.107     -13050.181      5845.8661      16604.795      5877.2992      5721.2457      5939.0534    
        89   0.52331888     200.14722      26.466093     -13076.582     -13050.116      5710.9098      16604.795      5738.552       5585.2169      5808.9606    
        90   0.52897751     203.97714      26.972535     -13077.023     -13050.05       5589.542       16604.795      5613.7434      5462.6559      5692.2267    
        91   0.53483709     207.54018      27.443687     -13077.427     -13049.984      5482.0511      16604.795      5503.1636      5353.8495      5589.1403    
        92   0.54078294     210.82901      27.87858      -13077.795     -13049.916      5388.6851      16604.795      5407.085       5259.0405      5499.9297    
        93   0.54687756     213.83771      28.276429     -13078.125     -13049.848      5309.5834      16604.795      5325.6492      5178.3722      5424.729     
        94   0.5527729      216.5617       28.636631     -13078.416     -13049.78       5244.8436      16604.795      5258.969       5111.9338      5363.628     
        95   0.55847813     218.99783      28.958768     -13078.67      -13049.711      5194.4792      16604.795      5207.0582      5059.7414      5316.6381    
        96   0.56451674     221.14425      29.242597     -13078.884     -13049.642      5158.4276      16604.795      5169.87        5021.7314      5283.6813    
        97   0.57040445     223.00051      29.488055     -13079.061     -13049.572      5136.5714      16604.795      5147.2777      4997.7965      5264.6401    
        98   0.5761675      224.56742      29.695252     -13079.198     -13049.503      5128.7226      16604.795      5139.112       4987.734       5259.3219    
        99   0.58206806     225.84709      29.864467     -13079.298     -13049.434      5134.6174      16604.795      5145.0962      4991.297       5267.4591    
       100   0.58823677     226.84286      29.996142     -13079.361     -13049.364      5153.9552      16604.795      5164.9416      5008.1742      5288.7497    
       101   0.59401263     227.55929      30.090877     -13079.386     -13049.295      5186.3542      16604.795      5198.2544      5037.9977      5322.8105    
       102   0.59946467     228.00206      30.149426     -13079.376     -13049.226      5231.3931      16604.795      5244.6155      5080.3448      5369.2191    
       103   0.6053549      228.17797      30.172687     -13079.33      -13049.157      5288.5934      16604.795      5303.5417      5134.7459      5427.4928    
       104   0.61114952     228.09485      30.161696     -13079.251     -13049.089      5357.4228      16604.795      5374.4891      5200.6719      5497.1073    
       105   0.61678093     227.76154      30.117621     -13079.138     -13049.021      5437.3212      16604.795      5456.8943      5277.5771      5577.4922    
       106   0.62262884     227.18777      30.041749     -13078.995     -13048.953      5527.6798      16604.795      5550.131       5364.8563      5668.0522    
       107   0.62859293     226.38414      29.935483     -13078.821     -13048.886      5627.8545      16604.795      5653.5517      5461.8735      5768.1383    
       108   0.63431802     225.36204      29.800328     -13078.619     -13048.819      5737.1616      16604.795      5766.4526      5567.9587      5877.0736    
       109   0.63978645     224.13359      29.637885     -13078.39      -13048.752      5854.9088      16604.795      5888.1286      5682.4263      5994.1714    
       110   0.64591316     222.71152      29.44984      -13078.136     -13048.686      5980.363       16604.795      6017.83        5804.5537      6118.7051    
       111   0.65131163     221.10914      29.237953     -13077.858     -13048.62       6112.7835      16604.795      6154.7978      5933.6217      6249.931     
       112   0.65736193     219.34025      29.004048     -13077.559     -13048.555      6251.4144      16604.795      6298.259       6068.8798      6387.1044    
       113   0.66344963     217.41906      28.750003     -13077.24      -13048.49       6395.4829      16604.795      6447.4156      6209.5693      6529.464     
       114   0.66945307     215.3601       28.47774      -13076.903     -13048.426      6544.2134      16604.795      6601.479       6354.9277      6676.2335    
       115   0.67510675     213.17815      28.189213     -13076.551     -13048.362      6696.8289      16604.795      6759.6373      6504.1994      6826.6501    
       116   0.68084704     210.88815      27.886399     -13076.185     -13048.298      6852.5567      16604.795      6921.1035      6656.6173      6979.9493    
       117   0.68684437     208.50512      27.571285     -13075.807     -13048.236      7010.6249      16604.795      7085.0721      6811.4319      7135.3706    
       118   0.69250163     206.04411      27.245858     -13075.419     -13048.173      7170.274       16604.795      7250.7727      6967.8918      7292.1574    
       119   0.6982119      203.52007      26.912096     -13075.023     -13048.111      7330.7639      16604.795      7417.4238      7125.275       7449.5929    
       120   0.7041885      200.94781      26.571958     -13074.621     -13048.049      7491.365       16604.795      7584.2744      7282.8684      7606.9521    
       121   0.71007484     198.3419       26.22737      -13074.215     -13047.988      7651.352       16604.795      7750.568       7439.9636      7763.5244    
       122   0.71557665     195.71663      25.880222     -13073.807     -13047.927      7810.065       16604.795      7915.6287      7595.9106      7918.6557    
       123   0.72121885     193.08589      25.532352     -13073.399     -13047.867      7966.8201      16604.795      8078.7289      7750.0443      8071.6871    
       124   0.72706957     190.46317      25.185541     -13072.992     -13047.807      8121.0095      16604.795      8239.2405      7901.7702      8222.0178    
       125   0.73262137     187.86143      24.841505     -13072.588     -13047.747      8272.0187      16604.795      8396.5192      8050.4835      8369.0534    
       126   0.73836419     185.29308      24.501883     -13072.189     -13047.687      8419.2929      16604.795      8549.9834      8195.6513      8512.2441    
       127   0.7444232      182.76991      24.168237     -13071.796     -13047.628      8562.2976      16604.795      8699.0676      8336.744       8651.0812    
       128   0.75054157     180.30305      23.842036     -13071.411     -13047.569      8700.5544      16604.795      8843.2642      8473.3057      8785.0932    
       129   0.75652574     177.90292      23.524659     -13071.036     -13047.511      8833.6103      16604.795      8982.0955      8604.8821      8913.8532    
       130   0.76229565     175.57916      23.217382     -13070.67      -13047.453      8961.0561      16604.795      9115.1211      8731.0852      9036.9618    
       131   0.76839898     173.34066      22.921378     -13070.316     -13047.395      9082.5289      16604.795      9241.9614      8851.5573      9154.0679    
       132   0.77449716     171.19546      22.637712     -13069.975     -13047.337      9197.7098      16604.795      9362.2544      8965.9931      9264.8819    
       133   0.78027588     169.15076      22.367335     -13069.647     -13047.279      9306.3281      16604.795      9475.7162      9074.1331      9369.135     
       134   0.78607069     167.21291      22.111086     -13069.333     -13047.222      9408.1465      16604.795      9582.0883      9175.7409      9466.6103    
       135   0.79184932     165.38734      21.869685     -13069.035     -13047.165      9502.9865      16604.795      9681.1573      9270.6493      9557.153     
       136   0.79777612     163.67864      21.643738     -13068.752     -13047.108      9590.7163      16604.795      9772.7765      9358.7339      9640.6385    
       137   0.80373246     162.09047      21.43373      -13068.485     -13047.051      9671.2306      16604.795      9856.8153      9439.8929      9716.9838    
       138   0.80938951     160.62562      21.240028     -13068.234     -13046.994      9744.4993      16604.795      9933.2338      9514.1037      9786.1604    
       139   0.81534489     159.28599      21.062885     -13068         -13046.937      9810.4996      16604.795      10001.984      9581.3431      9848.1713    
       140   0.82150359     158.07263      20.902438     -13067.783     -13046.881      9869.2921      16604.795      10063.106      9641.6767      9903.0939    
       141   0.82738469     156.98571      20.758711     -13067.583     -13046.824      9920.9461      16604.795      10116.666      9695.172       9950.9997    
       142   0.83294984     156.02459      20.63162      -13067.399     -13046.767      9965.5969      16604.795      10162.77       9741.9798      9992.0407    
       143   0.83869785     155.18785      20.520974     -13067.231     -13046.71       10003.408      16604.795      10201.585      9782.2413      10026.398    
       144   0.84472675     154.47327      20.426483     -13067.08      -13046.654      10034.578      16604.795      10233.282      9816.1748      10054.278    
       145   0.85091332     153.87793      20.34776      -13066.945     -13046.597      10059.348      16604.795      10258.111      9844.0061      10075.928    
       146   0.857055       153.39823      20.284327     -13066.824     -13046.54       10077.992      16604.795      10276.325      9866.0142      10091.637    
       147   0.86275227     153.0299       20.235623     -13066.719     -13046.483      10090.81       16604.795      10288.228      9882.4918      10101.71     
       148   0.86861566     152.76813      20.201007     -13066.627     -13046.426      10098.14       16604.795      10294.141      9893.7804      10106.498    
       149   0.87479145     152.60751      20.179769     -13066.548     -13046.368      10100.332      16604.795      10294.432      9900.2167      10106.348    
       150   0.88072302     152.54221      20.171134     -13066.482     -13046.311      10097.776      16604.795      10289.473      9902.1854      10101.671    
       151   0.88666117     152.56594      20.174272     -13066.427     -13046.253      10090.869      16604.795      10279.669      9900.0819      10092.856    
       152   0.89251835     152.67205      20.188302     -13066.384     -13046.195      10080.037      16604.795      10265.449      9894.3259      10080.336    
       153   0.898404       152.85358      20.212307     -13066.349     -13046.137      10065.716      16604.795      10247.255      9885.338       10064.555    
       154   0.90448228     153.10334      20.245333     -13066.324     -13046.079      10048.337      16604.795      10225.52       9873.5484      10045.941    
       155   0.91034778     153.41395      20.286407     -13066.307     -13046.02       10028.362      16604.795      10200.718      9859.4084      10024.959    
       156   0.9160391      153.77792      20.334536     -13066.296     -13045.961      10006.258      16604.795      10173.32       9843.372       10002.081    
       157   0.92196198     154.1877       20.388722     -13066.291     -13045.902      9982.4681      16604.795      10143.781      9825.8765      9977.7462    
       158   0.9279493      154.63575      20.447969     -13066.291     -13045.843      9957.4556      16604.795      10112.584      9807.3662      9952.4162    
       159   0.93379894     155.11459      20.511287     -13066.294     -13045.783      9931.6689      16604.795      10080.175      9788.2895      9926.5424    
       160   0.93969177     155.61687      20.577705     -13066.301     -13045.723      9905.5545      16604.795      10047.035      9769.0646      9900.5637    
       161   0.94560507     156.13542      20.646276     -13066.309     -13045.663      9879.535       16604.795      10013.587      9750.1169      9874.9011    
       162   0.95143395     156.66334      20.716083     -13066.319     -13045.603      9854.0341      16604.795      9980.2858      9731.8469      9849.9695    
       163   0.95789706     157.19397      20.786251     -13066.328     -13045.542      9829.4395      16604.795      9947.527       9714.6325      9826.1589    
       164   0.96404218     157.72105      20.855947     -13066.337     -13045.481      9806.1354      16604.795      9915.7148      9698.8411      9803.8503    
       165   0.97005523     158.23865      20.924392     -13066.344     -13045.42       9784.474       16604.795      9885.2291      9684.8052      9783.3876    
       166   0.97575747     158.74133      20.990863     -13066.349     -13045.358      9764.7898      16604.795      9856.4295      9672.8455      9765.0945    
       167   0.98171233     159.22408      21.054698     -13066.351     -13045.297      9747.3736      16604.795      9829.618       9663.2354      9749.2676    
       168   0.98782267     159.6824       21.115303     -13066.35      -13045.235      9732.4922      16604.795      9805.0973      9656.2309      9736.1484    
       169   0.99371064     160.11235      21.172157     -13066.345     -13045.173      9720.3961      16604.795      9783.1386      9652.0551      9725.9947    
       170   0.99929951     160.51054      21.224811     -13066.335     -13045.11       9711.2854      16604.795      9763.9727      9650.8904      9718.993     
       171   1.005149       160.87416      21.272893     -13066.321     -13045.048      9705.3281      16604.795      9747.7865      9652.8913      9715.3065    
       172   1.011256       161.201        21.316113     -13066.301     -13044.985      9702.6719      16604.795      9734.7665      9658.1827      9715.0664    
       173   1.0172561      161.4895       21.354261     -13066.277     -13044.923      9703.4008      16604.795      9725.0186      9666.8295      9718.3542    
       174   1.0232558      161.73866      21.38721      -13066.247     -13044.86       9707.59        16604.795      9718.6498      9678.8881      9725.2321    
       175   1.029102       161.94817      21.414914     -13066.212     -13044.797      9715.2634      16604.795      9715.7202      9694.3563      9735.7138    
       176   1.034991       162.11831      21.437412     -13066.171     -13044.734      9726.4085      16604.795      9716.2438      9713.2068      9749.7748    
       177   1.0409434      162.24999      21.454823     -13066.125     -13044.67       9740.9839      16604.795      9720.213       9735.3782      9767.3604    
       178   1.0471424      162.3447       21.467348     -13066.074     -13044.607      9758.9086      16604.795      9727.5714      9760.7675      9788.387     
       179   1.0533917      162.40457      21.475264     -13066.019     -13044.544      9780.0666      16604.795      9738.2488      9789.2353      9812.7157    
       180   1.0594584      162.43226      21.478926     -13065.959     -13044.48       9804.3025      16604.795      9752.1147      9820.6076      9840.1852    
       181   1.0651539      162.43099      21.478758     -13065.896     -13044.417      9831.4485      16604.795      9769.0391      9854.6922      9870.6144    
       182   1.0711353      162.40452      21.475257     -13065.829     -13044.353      9861.2916      16604.795      9788.8356      9891.2632      9903.7759    
       183   1.0772426      162.35706      21.468982     -13065.759     -13044.29       9893.5846      16604.795      9811.2986      9930.0459      9939.4094    
       184   1.083079       162.2933       21.460551     -13065.687     -13044.226      9928.075       16604.795      9836.2026      9970.7775      9977.2448    
       185   1.0893352      162.21834      21.450639     -13065.613     -13044.163      9964.4712      16604.795      9863.2974      10013.134      10016.982    
       186   1.0951674      162.13765      21.439968     -13065.539     -13044.099      10002.462      16604.795      9892.2913      10056.794      10058.299    
       187   1.1004268      162.05702      21.429307     -13065.464     -13044.035      10041.724      16604.795      9922.8995      10101.425      10100.849    
       188   1.1063515      161.98253      21.419457     -13065.391     -13043.971      10081.915      16604.795      9954.8081      10146.647      10144.29     
       189   1.1123831      161.92049      21.411253     -13065.319     -13043.908      10122.671      16604.795      9987.6855      10192.096      10188.232    
       190   1.1184169      161.87738      21.405553     -13065.249     -13043.844      10163.633      16604.795      10021.198      10237.391      10232.309    
       191   1.1234526      161.85983      21.403232     -13065.183     -13043.78       10204.423      16604.795      10054.999      10282.138      10276.131    
       192   1.1294342      161.87452      21.405174     -13065.121     -13043.716      10244.658      16604.795      10088.725      10325.943      10319.307    
       193   1.1352222      161.92814      21.412265     -13065.064     -13043.652      10283.964      16604.795      10122.029      10368.416      10361.447    
       194   1.1405493      162.02738      21.425388     -13065.013     -13043.588      10321.958      16604.795      10154.545      10409.169      10402.16     
       195   1.1472558      162.1788       21.44541      -13064.969     -13043.523      10358.26       16604.795      10185.92       10447.811      10441.051    
       196   1.1532681      162.38883      21.473182     -13064.932     -13043.459      10392.516      16604.795      10215.814      10483.968      10477.765    
       197   1.1595522      162.66367      21.509525     -13064.904     -13043.394      10424.348      16604.795      10243.857      10517.275      10511.913    
       198   1.1650652      163.00928      21.555227     -13064.885     -13043.329      10453.435      16604.795      10269.751      10547.385      10543.17     
       199   1.1711791      163.4313       21.611031     -13064.875     -13043.264      10479.426      16604.795      10293.148      10573.954      10571.177    
       200   1.1769401      163.93499      21.677637     -13064.877     -13043.199      10502.013      16604.795      10313.748      10596.669      10595.622    
       201   1.1820531      164.52522      21.755685     -13064.889     -13043.134      10520.908      16604.795      10331.273      10615.235      10616.217    
       202   1.1872875      165.20637      21.845755     -13064.914     -13043.068      10535.837      16604.795      10345.442      10629.392      10632.677    
       203   1.1932045      165.98231      21.94836      -13064.95      -13043.002      10546.558      16604.795      10356.024      10638.885      10644.766    
       204   1.1989816      166.85637      22.06394      -13064.999     -13042.935      10552.846      16604.795      10362.775      10643.5        10652.263    
       205   1.2036289      167.83127      22.192854     -13065.061     -13042.868      10554.512      16604.795      10365.512      10643.05       10654.973    
       206   1.2088507      168.90912      22.335381     -13065.136     -13042.801      10551.401      16604.795      10364.064      10637.398      10652.743    
       207   1.2146891      170.09135      22.491711     -13065.225     -13042.733      10543.384      16604.795      10358.294      10626.409      10645.45     
       208   1.2198682      171.37871      22.661943     -13065.327     -13042.665      10530.355      16604.795      10348.081      10610          10632.985    
       209   1.2257667      172.77126      22.846084     -13065.443     -13042.597      10512.263      16604.795      10333.353      10588.123      10615.313    
       210   1.2315147      174.26829      23.044042     -13065.571     -13042.527      10489.072      16604.795      10314.061      10560.762      10592.391    
       211   1.2374197      175.86839      23.255627     -13065.713     -13042.458      10460.79       16604.795      10290.191      10527.938      10564.24     
       212   1.242853       177.56937      23.480553     -13065.868     -13042.387      10427.464      16604.795      10261.763      10489.718      10530.91     
       213   1.2488313      179.3683       23.718431     -13066.035     -13042.316      10389.17       16604.795      10228.827      10446.197      10492.486    
       214   1.2551411      181.26149      23.968774     -13066.214     -13042.245      10346.032      16604.795      10191.485      10397.516      10449.094    
       215   1.2607262      183.24452      24.230996     -13066.404     -13042.173      10298.195      16604.795      10149.843      10343.849      10400.892    
       216   1.2665864      185.31223      24.504416     -13066.604     -13042.1        10245.846      16604.795      10104.069      10285.396      10348.073    
       217   1.2729006      187.45875      24.788256     -13066.815     -13042.026      10189.21       16604.795      10054.345      10222.421      10290.865    
       218   1.2785226      189.67751      25.08165      -13067.034     -13041.952      10128.531      16604.795      10000.885      10155.188      10229.521    
       219   1.2842813      191.96129      25.383642     -13067.261     -13041.878      10064.116      16604.795      9943.9575      10084.026      10164.364    
       220   1.290125       194.30225      25.693195     -13067.495     -13041.802      9996.2724      16604.795      9883.8463      10009.275      10095.696    
       221   1.2959689      196.69195      26.009192     -13067.735     -13041.726      9925.3512      16604.795      9820.8554      9931.3182      10023.88     
       222   1.3020697      199.12141      26.330447     -13067.98      -13041.649      9851.7362      16604.795      9755.3357      9850.5672      9949.3058    
       223   1.3080653      201.58114      26.655705     -13068.227     -13041.572      9775.8231      16604.795      9687.6451      9767.4496      9872.3745    
       224   1.3139253      204.06121      26.983653     -13068.477     -13041.494      9698.0491      16604.795      9618.1812      9682.4305      9793.5355    
       225   1.3197491      206.55131      27.312926     -13068.728     -13041.415      9618.8606      16604.795      9547.3583      9595.9929      9713.2305    
       226   1.3258094      209.04078      27.642116     -13068.978     -13041.336      9538.7266      16604.795      9475.5974      9508.638       9631.9444    
       227   1.3316116      211.51869      27.969778     -13069.226     -13041.256      9458.1359      16604.795      9403.3606      9420.8832      9550.164     
       228   1.3374423      213.97389      28.294437     -13069.47      -13041.175      9377.5915      16604.795      9331.1129      9333.2644      9468.397     
       229   1.3431355      216.39513      28.614604     -13069.709     -13041.095      9297.6034      16604.795      9259.3261      9246.3278      9387.1564    
       230   1.3494579      218.77102      28.928777     -13069.942     -13041.013      9218.6972      16604.795      9188.4907      9160.6223      9306.9787    
       231   1.3556382      221.09022      29.235452     -13070.167     -13040.931      9141.4024      16604.795      9119.0981      9076.7218      9228.3873    
       232   1.361583       223.34142      29.533135     -13070.382     -13040.849      9066.2393      16604.795      9051.6446      8995.161       9151.9124    
       233   1.3673421      225.51345      29.82035      -13070.587     -13040.767      8993.7411      16604.795      8986.6279      8916.5057      9078.0896    
       234   1.3736088      227.59535      30.095646     -13070.779     -13040.684      8924.442       16604.795      8924.5499      8841.3278      9007.4484    
       235   1.3796162      229.57642      30.357608     -13070.958     -13040.601      8858.8507      16604.795      8865.8929      8770.1496      8940.5096    
       236   1.3855347      231.4463       30.604869     -13071.122     -13040.517      8797.477       16604.795      8811.1405      8703.516       8877.7747    
       237   1.3913942      233.19504      30.836109     -13071.27      -13040.434      8740.8119      16604.795      8760.756       8641.9338      8819.7457    
       238   1.3972931      234.81314      31.050077     -13071.401     -13040.351      8689.3372      16604.795      8715.198       8585.9106      8766.9029    
       239   1.4033415      236.29166      31.245586     -13071.513     -13040.267      8643.5131      16604.795      8674.9115      8535.9168      8719.7111    
       240   1.4091916      237.62222      31.42153      -13071.605     -13040.183      8603.7678      16604.795      8640.2924      8492.4192      8678.5916    
       241   1.4148312      238.79709      31.576886     -13071.677     -13040.1        8570.508       16604.795      8611.7409      8455.8235      8643.9596    
       242   1.4205524      239.80923      31.710725     -13071.727     -13040.017      8544.1077      16604.795      8589.611       8426.5122      8616.1998    
       243   1.4264648      240.65236      31.822215     -13071.756     -13039.933      8524.9194      16604.795      8574.2387      8404.8687      8595.6506    
       244   1.432198       241.32096      31.910625     -13071.761     -13039.85       8513.2519      16604.795      8565.9295      8391.1946      8582.6315    
       245   1.4380435      241.81033      31.975337     -13071.743     -13039.768      8509.3832      16604.795      8564.9421      8385.7826      8577.425     
       246   1.4443876      242.11666      32.015843     -13071.701     -13039.685      8513.5366      16604.795      8571.5047      8388.8588      8580.2463    
       247   1.4506401      242.23698      32.031754     -13071.635     -13039.603      8525.9091      16604.795      8585.8008      8400.6219      8591.3045    
       248   1.456576       242.16927      32.0228       -13071.544     -13039.521      8546.6547      16604.795      8607.9788      8421.2303      8610.7549    
       249   1.4623336      241.91241      31.988835     -13071.428     -13039.44       8575.8822      16604.795      8638.1545      8450.7861      8638.7058    
       250   1.468247       241.46623      31.929835     -13071.288     -13039.359      8613.6474      16604.795      8676.3758      8489.3443      8675.2221    
       251   1.4743908      240.83152      31.845905     -13071.124     -13039.278      8659.9664      16604.795      8722.6712      8536.9094      8720.3186    
       252   1.4802895      240.01001      31.737275     -13070.935     -13039.198      8714.802       16604.795      8777.0068      8593.4466      8773.9527    
       253   1.4859782      239.0044       31.604299     -13070.723     -13039.119      8778.0841      16604.795      8839.3153      8658.8613      8836.0756    
       254   1.4920921      237.81831      31.447459     -13070.487     -13039.04       8849.6781      16604.795      8909.4697      8733.0234      8906.5413    
       255   1.4981667      236.45633      31.26736      -13070.229     -13038.961      8929.4215      16604.795      8987.3244      8815.7489      8985.1913    
       256   1.5040436      234.92393      31.064726     -13069.948     -13038.883      9017.0917      16604.795      9072.6662      8906.7923      9071.8167    
       257   1.5099352      233.22751      30.840403     -13069.647     -13038.806      9112.4283      16604.795      9165.2533      9005.8888      9166.1427    
       258   1.515983       231.37432      30.595351     -13069.325     -13038.729      9215.1296      16604.795      9264.7956      9112.7139      9267.8792    
       259   1.5220351      229.37247      30.330639     -13068.984     -13038.653      9324.84        16604.795      9370.9535      9226.8914      9376.6751    
       260   1.5280667      227.23084      30.047445     -13068.625     -13038.578      9441.1818      16604.795      9483.3842      9348.0142      9492.1472    
       261   1.5338167      224.95912      29.747049     -13068.25      -13038.503      9563.7353      16604.795      9601.6683      9475.6508      9613.8868    
       262   1.5397821      222.5677       29.430824     -13067.86      -13038.429      9692.0353      16604.795      9725.3728      9609.314       9741.4192    
       263   1.5459514      220.06765      29.100233     -13067.455     -13038.355      9825.5917      16604.795      9854.0368      9748.4763      9874.2621    
       264   1.5520112      217.47066      28.756825     -13067.039     -13038.282      9963.8875      16604.795      9987.1615      9892.6055      10011.895    
       265   1.5578569      214.789        28.402221     -13066.612     -13038.209      10106.366      16604.795      10124.221      10041.119      10153.759    
       266   1.5638625      212.03545      28.038111     -13066.176     -13038.138      10252.474      16604.795      10264.679      10193.429      10299.314    
       267   1.5702415      209.22325      27.666245     -13065.732     -13038.066      10401.597      16604.795      10407.965      10348.906      10447.921    
       268   1.5764443      206.36603      27.288426     -13065.284     -13037.995      10553.133      16604.795      10553.489      10506.904      10599.005    
       269   1.5824426      203.47775      26.906499     -13064.832     -13037.925      10706.454      16604.795      10700.663      10666.783      10751.917    
       270   1.5881971      200.57261      26.522344     -13064.378     -13037.856      10860.931      16604.795      10848.886      10827.877      10906.031    
       271   1.5942672      197.66503      26.137865     -13063.924     -13037.786      11015.906      16604.795      10997.527      10989.511      11060.682    
       272   1.6004633      194.76953      25.754984     -13063.473     -13037.718      11170.741      16604.795      11145.974      11151.007      11215.242    
       273   1.6065168      191.90069      25.375628     -13063.025     -13037.65       11324.778      16604.795      11293.609      11311.692      11369.032    
       274   1.6122769      189.07306      25.001722     -13062.584     -13037.582      11477.366      16604.795      11439.798      11470.88       11521.419    
       275   1.618072       186.30111      24.635178     -13062.15      -13037.515      11627.873      16604.795      11583.944      11627.92       11671.756    
       276   1.624111       183.59913      24.277887     -13061.726     -13037.448      11775.652      16604.795      11725.432      11782.138      11819.386    
       277   1.6299876      180.98118      23.931707     -13061.313     -13037.382      11920.087      16604.795      11863.672      11932.89       11963.7      
       278   1.6359301      178.461        23.598457     -13060.914     -13037.316      12060.565      16604.795      11998.068      12079.544      12104.082    
       279   1.6418557      176.05198      23.279904     -13060.53      -13037.25       12196.495      16604.795      12128.066      12221.491      12239.929    
       280   1.6482949      173.76703      22.977758     -13060.163     -13037.185      12327.316      16604.795      12253.129      12358.143      12370.676    
       281   1.654516       171.61856      22.693659     -13059.813     -13037.12       12452.478      16604.795      12372.729      12488.93       12495.776    
       282   1.6607256      169.61841      22.429172     -13059.484     -13037.055      12571.452      16604.795      12486.359      12613.309      12614.689    
       283   1.6666452      167.77776      22.185778     -13059.176     -13036.99       12683.755      16604.795      12593.559      12730.773      12726.933    
       284   1.6725336      166.10712      21.964863     -13058.891     -13036.926      12788.926      16604.795      12693.892      12840.842      12832.043    
       285   1.6785741      164.6162       21.767716     -13058.629     -13036.862      12886.536      16604.795      12786.944      12943.083      12929.583    
       286   1.6846799      163.31395      21.595515     -13058.393     -13036.797      12976.187      16604.795      12872.334      13037.073      13019.154    
       287   1.6907594      162.20843      21.449328     -13058.182     -13036.733      13057.532      16604.795      12949.736      13122.458      13100.403    
       288   1.6966563      161.30679      21.330101     -13057.999     -13036.669      13130.254      16604.795      13018.848      13198.902      13173.012    
       289   1.7026624      160.61525      21.238657     -13057.843     -13036.604      13194.075      16604.795      13079.393      13266.123      13236.708    
       290   1.7088384      160.13905      21.175688     -13057.715     -13036.54       13248.755      16604.795      13131.164      13323.863      13291.238    
       291   1.7149913      159.8824       21.14175      -13057.616     -13036.475      13294.112      16604.795      13173.979      13371.941      13336.414    
       292   1.7209238      159.84847      21.137263     -13057.547     -13036.41       13329.992      16604.795      13207.694      13410.188      13372.093    
       293   1.7266189      160.03936      21.162506     -13057.507     -13036.344      13356.292      16604.795      13232.211      13438.5        13398.165    
       294   1.7327157      160.45611      21.217613     -13057.496     -13036.278      13372.965      16604.795      13247.495      13456.82       13414.579    
       295   1.7387908      161.09863      21.302575     -13057.514     -13036.212      13379.98       16604.795      13253.517      13465.109      13421.312    
       296   1.7447501      161.96574      21.417237     -13057.562     -13036.145      13377.394      16604.795      13250.34       13463.431      13418.412    
       297   1.7505389      163.05519      21.561298     -13057.639     -13036.077      13365.271      16604.795      13238.023      13451.846      13405.945    
       298   1.7566294      164.36359      21.734311     -13057.743     -13036.009      13343.746      16604.795      13216.71       13430.483      13384.044    
       299   1.7630621      165.88648      21.935688     -13057.876     -13035.94       13312.99       16604.795      13186.564      13399.517      13352.888    
       300   1.7690907      167.61834      22.164697     -13058.035     -13035.87       13273.209      16604.795      13147.791      13359.156      13312.679    
       301   1.7751618      169.5526       22.42047      -13058.22      -13035.8        13224.678      16604.795      13100.667      13309.678      13263.69     
       302   1.7813185      171.68167      22.702004     -13058.43      -13035.728      13167.688      16604.795      13045.469      13251.376      13206.218    
       303   1.7874767      173.99698      23.008165     -13058.664     -13035.656      13102.589      16604.795      12982.549      13184.61       13140.607    
       304   1.7935866      176.48902      23.337695     -13058.92      -13035.582      13029.771      16604.795      12912.287      13109.772      13067.253    
       305   1.7995127      179.14739      23.68922      -13059.197     -13035.508      12949.647      16604.795      12835.081      13027.287      12986.573    
       306   1.8053226      181.96084      24.061251     -13059.494     -13035.433      12862.672      16604.795      12751.384      12937.617      12899.014    
       307   1.8111469      184.91732      24.452196     -13059.808     -13035.356      12769.346      16604.795      12661.672      12841.282      12805.085    
       308   1.8172556      188.00408      24.860367     -13060.139     -13035.279      12670.192      16604.795      12566.47       12738.803      12705.304    
       309   1.8233249      191.20767      25.283989     -13060.484     -13035.2        12565.763      16604.795      12466.302      12630.754      12600.232    
       310   1.8292018      194.51409      25.721207     -13060.842     -13035.12       12456.635      16604.795      12361.738      12517.731      12490.436    
       311   1.8353915      197.90878      26.170097     -13061.21      -13035.04       12343.409      16604.795      12253.357      12400.344      12376.526    
       312   1.841467       201.37677      26.62868      -13061.587     -13034.958      12226.72       16604.795      12141.777      12279.251      12259.132    
       313   1.8477122      204.90269      27.094924     -13061.97      -13034.875      12107.198      16604.795      12027.608      12155.099      12138.886    
       314   1.8536265      208.47092      27.566762     -13062.358     -13034.791      11985.499      16604.795      11911.489      12028.563      12016.444    
       315   1.8598968      212.06562      28.0421       -13062.748     -13034.706      11862.288      16604.795      11794.055      11900.331      11892.477    
       316   1.8658269      215.67084      28.51883      -13063.139     -13034.62       11738.244      16604.795      11675.973      11771.108      11767.65     
       317   1.8719703      219.27061      28.994839     -13063.529     -13034.534      11614.038      16604.795      11557.882      11641.586      11642.646    
       318   1.8781498      222.84899      29.46802      -13063.914     -13034.446      11490.347      16604.795      11440.442      11512.461      11518.137    
       319   1.884518       226.39022      29.936286     -13064.294     -13034.358      11367.842      16604.795      11324.287      11384.438      11394.8      
       320   1.8906029      229.87872      30.397582     -13064.666     -13034.269      11247.196      16604.795      11210.073      11258.212      11273.304    
       321   1.8965998      233.29924      30.849889     -13065.029     -13034.179      11129.064      16604.795      11098.428      11134.461      11154.303    
       322   1.9023264      236.63694      31.291243     -13065.38      -13034.089      11014.083      16604.795      10989.956      11013.858      11038.436    
       323   1.9082465      239.87741      31.71974      -13065.718     -13033.998      10902.873      16604.795      10885.26       10897.041      10926.32     
       324   1.9142853      243.0068       32.133549     -13066.041     -13033.907      10796.054      16604.795      10784.918      10784.655      10818.588    
       325   1.9202448      246.01188      32.53092      -13066.346     -13033.815      10694.189      16604.795      10689.476      10677.3        10715.79     
       326   1.9261349      248.8801       32.910194     -13066.634     -13033.724      10597.836      16604.795      10599.453      10575.554      10618.5      
       327   1.9320242      251.59965      33.269809     -13066.901     -13033.632      10507.521      16604.795      10515.354      10479.971      10527.237    
       328   1.9380423      254.15953      33.60831      -13067.148     -13033.539      10423.73       16604.795      10437.637      10391.066      10442.487    
       329   1.9441631      256.54962      33.924359     -13067.372     -13033.447      10346.917      16604.795      10366.724      10309.315      10364.712    
       330   1.9503277      258.76068      34.216734     -13067.572     -13033.355      10277.5        16604.795      10303.006      10235.16       10294.333    
       331   1.9562857      260.78444      34.484343     -13067.747     -13033.263      10215.853      16604.795      10246.834      10168.995      10231.73     
       332   1.9623028      262.61363      34.726221     -13067.897     -13033.171      10162.318      16604.795      10198.517      10111.192      10177.245    
       333   1.9683299      264.24197      34.941543     -13068.021     -13033.08       10117.181      16604.795      10158.312      10062.062      10131.171    
       334   1.9745652      265.66428      35.129619     -13068.118     -13032.988      10080.693      16604.795      10126.457      10021.863      10093.758    
       335   1.9804229      266.8764       35.289901     -13068.187     -13032.898      10053.053      16604.795      10103.121      9990.821       10065.217    
       336   1.9862484      267.87529      35.421987     -13068.229     -13032.807      10034.425      16604.795      10088.449      9969.1112      10045.716    
       337   1.992266       268.65897      35.525616     -13068.243     -13032.717      10024.91       16604.795      10082.516      9956.8567      10035.359    
       338   1.9983967      269.22658      35.600673     -13068.229     -13032.628      10024.57       16604.795      10085.366      9954.1336      10034.211    
       339   2.0044208      269.57832      35.647185     -13068.187     -13032.539      10033.429      16604.795      10097.005      9960.9695      10042.312    
       340   2.0101015      269.7155       35.665324     -13068.117     -13032.451      10051.451      16604.795      10117.381      9977.3483      10059.623    
       341   2.0158374      269.64045      35.6554       -13068.019     -13032.364      10078.558      16604.795      10146.4        10003.198      10086.074    
       342   2.0217707      269.35657      35.617862     -13067.895     -13032.277      10114.63       16604.795      10183.938      10038.4        10121.553    
       343   2.0277086      268.86827      35.553292     -13067.745     -13032.192      10159.501      16604.795      10229.802      10082.801      10165.901    
       344   2.0336385      268.18092      35.462402     -13067.569     -13032.106      10212.956      16604.795      10283.78       10136.18       10218.908    
       345   2.0395443      267.30086      35.346029     -13067.368     -13032.022      10274.755      16604.795      10345.62       10198.306      10280.339    
       346   2.0457517      266.23531      35.205128     -13067.144     -13031.938      10344.598      16604.795      10415.021      10268.867      10349.905    
       347   2.0520269      264.99238      35.040771     -13066.896     -13031.856      10422.161      16604.795      10491.653      10347.547      10427.282    
       348   2.0594878      263.58095      34.854134     -13066.628     -13031.774      10507.077      16604.795      10575.152      10433.966      10512.112    
       349   2.0666135      262.0107       34.646494     -13066.339     -13031.692      10598.952      16604.795      10665.121      10527.731      10604.003    
       350   2.0724349      260.29198      34.419222     -13066.031     -13031.612      10697.354      16604.795      10761.134      10628.395      10702.533    
       351   2.0785104      258.4358       34.173774     -13065.706     -13031.532      10801.829      16604.795      10862.75       10735.495      10807.243    
       352   2.0853112      256.45376      33.911683     -13065.365     -13031.453      10911.884      16604.795      10969.468      10848.525      10917.659    
       353   2.0922612      254.35798      33.634551     -13065.009     -13031.375      11027.025      16604.795      11080.818      10966.987      11033.27     
       354   2.0977839      252.16103      33.344042     -13064.641     -13031.297      11146.707      16604.795      11196.26       11090.31       11153.55     
       355   2.1039382      249.8759       33.041872     -13064.262     -13031.22       11270.397      16604.795      11315.276      11217.955      11277.959    
       356   2.1100431      247.51587      32.729798     -13063.874     -13031.144      11397.527      16604.795      11437.315      11349.332      11405.935    
       357   2.1158355      245.09452      32.409615     -13063.478     -13031.068      11527.531      16604.795      11561.828      11483.855      11536.912    
       358   2.1216526      242.62559      32.083141     -13063.076     -13030.993      11659.822      16604.795      11688.25       11620.914      11670.302    
       359   2.1276588      240.12297      31.752211     -13062.671     -13030.919      11793.818      16604.795      11816.015      11759.919      11805.519    
       360   2.1335898      237.60059      31.418669     -13062.263     -13030.845      11928.926      16604.795      11944.558      11900.244      11941.976    
       361   2.1394806      235.07237      31.084354     -13061.856     -13030.771      12064.555      16604.795      12073.307      12041.287      12079.072    
       362   2.1452693      232.55215      30.751099     -13061.449     -13030.698      12200.121      16604.795      12201.706      12182.427      12216.23     
       363   2.1515538      230.05365      30.420713     -13061.046     -13030.625      12335.049      16604.795      12329.204      12323.076      12352.867    
       364   2.1578928      227.59033      30.094981     -13060.648     -13030.553      12468.767      16604.795      12455.267      12462.634      12488.399    
       365   2.1639844      225.17542      29.77565      -13060.257     -13030.481      12600.713      16604.795      12579.341      12600.513      12622.286    
       366   2.1697378      222.82178      29.46442      -13059.874     -13030.409      12730.346      16604.795      12700.933      12736.151      12753.953    
       367   2.1759828      220.54188      29.162943     -13059.501     -13030.338      12857.14       16604.795      12819.532      12868.998      12882.891    
       368   2.1820911      218.34775      28.872805     -13059.139     -13030.266      12980.595      16604.795      12934.679      12998.523      13008.584    
       369   2.1882884      216.25087      28.595529     -13058.791     -13030.195      13100.217      16604.795      13045.904      13124.206      13130.541    
       370   2.1942521      214.26218      28.332558     -13058.457     -13030.124      13215.546      16604.795      13152.774      13245.568      13248.294    
       371   2.1999687      212.39199      28.085258     -13058.139     -13030.053      13326.146      16604.795      13254.895      13362.144      13361.398    
       372   2.2060394      210.64995      27.854901     -13057.837     -13029.983      13431.613      16604.795      13351.885      13473.508      13469.447    
       373   2.2121739      209.04497      27.64267      -13057.554     -13029.912      13531.57       16604.795      13443.393      13579.253      13572.065    
       374   2.2181161      207.58524      27.449646     -13057.29      -13029.841      13625.667      16604.795      13529.115      13679          13668.888    
       375   2.2241169      206.27815      27.276805     -13057.047     -13029.77       13713.593      16604.795      13608.755      13772.423      13759.601    
       376   2.2301008      205.13024      27.125014     -13056.824     -13029.699      13795.06       16604.795      13682.058      13859.212      13843.911    
       377   2.2363702      204.14724      26.995029     -13056.622     -13029.627      13869.83       16604.795      13748.814      13939.099      13921.577    
       378   2.2424307      203.33397      26.887487     -13056.443     -13029.556      13937.685      16604.795      13808.84       14011.846      13992.369    
       379   2.2482595      202.69435      26.802907     -13056.287     -13029.484      13998.455      16604.795      13861.986      14077.265      14056.114    
       380   2.2542919      202.23138      26.741689     -13056.153     -13029.412      14051.995      16604.795      13908.138      14135.187      14112.659    
       381   2.2603513      201.94716      26.704105     -13056.043     -13029.339      14098.216      16604.795      13947.235      14185.503      14161.911    
       382   2.2665615      201.84283      26.690309     -13055.957     -13029.266      14137.043      16604.795      13979.224      14228.121      14203.784    
       383   2.2724232      201.91859      26.700327     -13055.893     -13029.193      14168.458      16604.795      14004.113      14263.008      14238.253    
       384   2.2782989      202.17371      26.734062     -13055.853     -13029.119      14192.477      16604.795      14021.944      14290.161      14265.325    
       385   2.2844123      202.60654      26.791296     -13055.836     -13029.045      14209.139      16604.795      14032.778      14309.601      14285.038    
       386   2.2907546      203.21449      26.871688     -13055.842     -13028.97       14218.534      16604.795      14036.722      14321.407      14297.471    
       387   2.2968753      203.99411      26.974779     -13055.87      -13028.895      14220.787      16604.795      14033.926      14325.698      14302.736    
       388   2.3029443      204.94103      27.099993     -13055.919     -13028.819      14216.06       16604.795      14024.572      14322.615      14300.992    
       389   2.308698       206.05005      27.246643     -13055.989     -13028.742      14204.547      16604.795      14008.871      14312.348      14292.422    
       390   2.3146145      207.31516      27.413932     -13056.079     -13028.665      14186.468      16604.795      13987.06       14295.108      14277.237    
       391   2.3208373      208.72955      27.600962     -13056.188     -13028.587      14162.084      16604.795      13959.412      14271.146      14255.693    
       392   2.3270658      210.28567      27.806733     -13056.315     -13028.508      14131.686      16604.795      13926.236      14240.754      14228.069    
       393   2.3328586      211.97528      28.030154     -13056.459     -13028.429      14095.595      16604.795      13887.868      14204.244      14194.673    
       394   2.3387396      213.78946      28.270049     -13056.619     -13028.349      14054.152      16604.795      13844.648      14161.96       14155.847    
       395   2.3448463      215.71872      28.525161     -13056.793     -13028.268      14007.731      16604.795      13796.974      14114.269      14111.951    
       396   2.3511266      217.75301      28.794161     -13056.981     -13028.187      13956.737      16604.795      13745.248      14061.583      14063.38     
       397   2.357287       219.88178      29.075656     -13057.18      -13028.104      13901.574      16604.795      13689.887      14004.306      14010.529    
       398   2.3632594      222.09409      29.368196     -13057.389     -13028.021      13842.682      16604.795      13631.326      13942.88       13953.842    
       399   2.3692032      224.37858      29.670282     -13057.608     -13027.938      13780.519      16604.795      13570.026      13877.777      13893.753    
       400   2.3756515      226.72363      29.980375     -13057.833     -13027.853      13715.541      16604.795      13506.456      13809.451      13830.715    
       401   2.3818018      229.11738      30.296908     -13058.065     -13027.768      13648.231      16604.795      13441.086      13738.401      13765.204    
       402   2.3876289      231.54779      30.618289     -13058.301     -13027.682      13579.076      16604.795      13374.404      13665.127      13697.698    
       403   2.3934006      234.00274      30.942914     -13058.539     -13027.596      13508.573      16604.795      13306.9        13590.126      13628.695    
       404   2.3994059      236.47005      31.269175     -13058.778     -13027.509      13437.209      16604.795      13239.055      13513.914      13558.658    
       405   2.4055432      238.93762      31.595469     -13059.017     -13027.422      13365.492      16604.795      13171.371      13437.006      13488.1      
       406   2.4115811      241.39343      31.920208     -13059.254     -13027.334      13293.905      16604.795      13104.318      13359.907      13417.491    
       407   2.4176329      243.82565      32.241829     -13059.487     -13027.245      13222.949      16604.795      13038.384      13283.135      13347.327    
       408   2.4234623      246.2227       32.558797     -13059.715     -13027.156      13153.093      16604.795      12974.024      13207.19       13278.066    
       409   2.4296284      248.57328      32.869623     -13059.937     -13027.067      13084.826      16604.795      12911.714      13132.572      13210.193    
       410   2.4357104      250.8665       33.172863     -13060.151     -13026.978      13018.596      16604.795      12851.885      13059.762      13144.14     
       411   2.4415484      253.09188      33.467132     -13060.355     -13026.888      12954.85       16604.795      12794.965      12989.228      13080.358    
       412   2.4474546      255.23944      33.75111      -13060.549     -13026.798      12894.017      16604.795      12741.359      12921.431      13019.261    
       413   2.4535778      257.29974      34.023549     -13060.732     -13026.708      12836.503      16604.795      12691.462      12856.802      12961.246    
       414   2.4595634      259.26393      34.28328      -13060.901     -13026.618      12782.694      16604.795      12645.621      12795.762      12906.699    
       415   2.4656974      261.12382      34.52922      -13061.057     -13026.528      12732.945      16604.795      12604.181      12738.694      12855.96     
       416   2.4717861      262.87192      34.760376     -13061.198     -13026.438      12687.597      16604.795      12567.454      12685.976      12809.361    
       417   2.4778494      264.50143      34.975851     -13061.323     -13026.348      12646.95       16604.795      12535.712      12637.935      12767.203    
       418   2.4841751      266.00634      35.17485      -13061.433     -13026.258      12611.287      16604.795      12509.211      12594.889      12729.76     
       419   2.4904752      267.38142      35.356681     -13061.525     -13026.168      12580.847      16604.795      12488.158      12557.12       12697.262    
       420   2.4967646      268.62226      35.520762     -13061.599     -13026.079      12555.859      16604.795      12472.762      12524.883      12669.931    
       421   2.5027321      269.72529      35.666619     -13061.656     -13025.989      12536.486      16604.795      12463.142      12498.374      12647.941    
       422   2.5085241      270.68778      35.793892     -13061.694     -13025.901      12522.88       16604.795      12459.433      12477.782      12631.425    
       423   2.5144631      271.50786      35.902334     -13061.714     -13025.812      12515.162      16604.795      12461.717      12463.26       12620.51     
       424   2.5204586      272.18453      35.991812     -13061.716     -13025.724      12513.393      16604.795      12470.028      12454.902      12615.248    
       425   2.526352       272.71763      36.062306     -13061.699     -13025.636      12517.633      16604.795      12484.39       12452.804      12615.706    
       426   2.5321945      273.10787      36.113908     -13061.663     -13025.549      12527.872      16604.795      12504.767      12456.975      12621.875    
       427   2.5382756      273.35679      36.146823     -13061.61      -13025.463      12544.096      16604.795      12531.105      12467.436      12633.748    
       428   2.5445919      273.46675      36.161363     -13061.538     -13025.377      12566.221      16604.795      12563.292      12484.132      12651.239    
       429   2.5509932      273.44091      36.157947     -13061.449     -13025.291      12594.168      16604.795      12601.218      12507          12674.288    
       430   2.5572136      273.2832       36.137093     -13061.343     -13025.206      12627.791      16604.795      12644.708      12535.922      12702.744    
       431   2.5631498      272.99831      36.099421     -13061.221     -13025.122      12666.931      16604.795      12693.563      12570.759      12736.47     
       432   2.569033       272.5916       36.045641     -13061.084     -13025.038      12711.397      16604.795      12747.568      12611.34       12775.284    
       433   2.5753012      272.06913      35.976552     -13060.931     -13024.955      12760.948      16604.795      12806.455      12657.43       12818.96     
       434   2.5812827      271.43754      35.893035     -13060.765     -13024.872      12815.339      16604.795      12869.942      12708.804      12867.27     
       435   2.5871673      270.70408      35.796047     -13060.586     -13024.79       12874.277      16604.795      12937.715      12765.173      12919.941    
       436   2.593289       269.87651      35.686615     -13060.395     -13024.709      12937.463      16604.795      13009.442      12826.256      12976.693    
       437   2.5992842      268.96307      35.565828     -13060.194     -13024.628      13004.571      16604.795      13084.769      12891.718      13037.226    
       438   2.6055685      267.97241      35.43483      -13059.982     -13024.548      13075.235      16604.795      13163.315      12961.198      13101.191    
       439   2.6118333      266.91355      35.294814     -13059.763     -13024.468      13149.093      16604.795      13244.68       13034.342      13168.256    
       440   2.6178725      265.79581      35.147012     -13059.536     -13024.389      13225.753      16604.795      13328.459      13110.745      13238.054    
       441   2.6237526      264.62877      34.99269      -13059.303     -13024.31       13304.811      16604.795      13414.224      13189.997      13310.212    
       442   2.6296778      263.42219      34.83314      -13059.065     -13024.232      13385.867      16604.795      13501.553      13271.697      13384.353    
       443   2.6357037      262.18594      34.669668     -13058.823     -13024.154      13468.49       16604.795      13589.996      13355.397      13460.075    
       444   2.6417242      260.93         34.503591     -13058.58      -13024.076      13552.254      16604.795      13679.117      13440.656      13536.989    
       445   2.6476779      259.66433      34.336227     -13058.336     -13023.999      13636.729      16604.795      13768.466      13527.039      13614.683    
       446   2.6536711      258.39885      34.168889     -13058.092     -13023.923      13721.486      16604.795      13857.605      13614.087      13692.765    
       447   2.6596835      257.14338      34.002874     -13057.849     -13023.847      13806.093      16604.795      13946.087      13701.366      13770.825    
       448   2.6662854      255.90757      33.839459     -13057.61      -13023.771      13890.136      16604.795      14033.489      13788.429      13848.49     
       449   2.6727269      254.70086      33.679891     -13057.375     -13023.695      13973.179      16604.795      14119.375      13874.825      13925.339    
       450   2.6789702      253.53241      33.525384     -13057.145     -13023.619      14054.834      16604.795      14203.344      13960.137      14001.022    
       451   2.6848977      252.41109      33.377108     -13056.921     -13023.544      14134.709      16604.795      14285.011      14043.954      14075.162    
       452   2.6908879      251.34537      33.236185     -13056.705     -13023.469      14212.41       16604.795      14363.972      14125.858      14147.401    
       453   2.6968508      250.34333      33.103682     -13056.498     -13023.394      14287.584      16604.795      14439.872      14205.475      14217.405    
       454   2.7028804      249.41259      32.980607     -13056.3       -13023.319      14359.882      16604.795      14512.383      14282.423      14284.841    
       455   2.7088518      248.56026      32.8679       -13056.112     -13023.244      14428.995      16604.795      14581.191      14356.374      14349.42     
       456   2.7144974      247.79294      32.766435     -13055.936     -13023.17       14494.612      16604.795      14645.996      14426.988      14410.853    
       457   2.7204565      247.11665      32.677007     -13055.772     -13023.095      14556.463      16604.795      14706.537      14493.973      14468.879    
       458   2.7266407      246.53682      32.600335     -13055.62      -13023.02       14614.301      16604.795      14762.58       14557.055      14523.269    
       459   2.7328085      246.05826      32.537054     -13055.482     -13022.945      14667.899      16604.795      14813.913      14615.98       14573.805    
       460   2.7388729      245.68514      32.487714     -13055.358     -13022.87       14717.073      16604.795      14860.374      14670.539      14620.305    
       461   2.7448608      245.42095      32.452779     -13055.248     -13022.795      14761.645      16604.795      14901.791      14720.538      14662.605    
       462   2.751175       245.2685       32.432621     -13055.152     -13022.72       14801.49       16604.795      14938.07       14765.822      14700.577    
       463   2.7572175      245.22994      32.427522     -13055.072     -13022.644      14836.502      16604.795      14969.12       14806.27       14734.115    
       464   2.7635983      245.30667      32.437669     -13055.006     -13022.568      14866.604      16604.795      14994.894      14841.773      14763.146    
       465   2.7695142      245.49943      32.463158     -13054.956     -13022.492      14891.757      16604.795      15015.37       14872.283      14787.617    
       466   2.7810063      245.80824      32.503992     -13054.92      -13022.416      14911.943      16604.795      15030.56       14897.76       14807.509    
       467   2.7873192      246.2324       32.560081     -13054.9       -13022.34       14927.184      16604.795      15040.513      14918.208      14822.831    
       468   2.7934401      246.77055      32.631242     -13054.894     -13022.263      14937.53       16604.795      15045.312      14933.659      14833.62     
       469   2.7995525      247.42062      32.717203     -13054.903     -13022.185      14943.049      16604.795      15045.047      14944.163      14839.936    
       470   2.8056171      248.17988      32.817602     -13054.925     -13022.108      14943.858      16604.795      15039.864      14949.837      14841.873    
       471   2.8114729      249.04496      32.931994     -13054.962     -13022.03       14940.085      16604.795      15029.928      14950.781      14839.546    
       472   2.8174147      250.01185      33.059849     -13055.011     -13021.952      14931.895      16604.795      15015.433      14947.153      14833.1      
       473   2.8235302      251.07593      33.200555     -13055.073     -13021.873      14919.473      16604.795      14996.594      14939.128      14822.696    
       474   2.8295245      252.23202      33.353429     -13055.147     -13021.794      14903.031      16604.795      14973.656      14926.912      14808.526    
       475   2.8354541      253.47438      33.517711     -13055.232     -13021.714      14882.801      16604.795      14946.882      14910.721      14790.799    
       476   2.8412101      254.79679      33.692577     -13055.327     -13021.635      14859.048      16604.795      14916.567      14890.823      14769.753    
       477   2.8474081      256.19253      33.87714      -13055.431     -13021.554      14832.034      16604.795      14883.007      14867.474      14745.621    
       478   2.8537966      257.65447      34.070456     -13055.544     -13021.474      14802.062      16604.795      14846.535      14840.965      14718.687    
       479   2.8600986      259.17507      34.27153      -13055.664     -13021.393      14769.443      16604.795      14807.491      14811.607      14689.231    
[...]
       894   5.0444916      292.88823      38.729527     -13050.075     -13011.346      16789.855      16604.795      16653.139      16758.38       16958.045    
       895   5.049088       294.94279      39.001207     -13050.368     -13011.366      16718.107      16604.795      16580.575      16687.826      16885.921    
       896   5.0534876      297.03011      39.277221     -13050.665     -13011.387      16645.478      16604.795      16507.289      16615.729      16813.415    
       897   5.0578562      299.1415       39.556416     -13050.965     -13011.408      16572.215      16604.795      16433.552      16542.325      16740.768    
       898   5.0624303      301.26815      39.83763      -13051.267     -13011.429      16498.572      16604.795      16359.616      16467.88       16668.221    
       899   5.067082       303.40127      40.119699     -13051.57      -13011.45       16424.821      16604.795      16285.763      16392.667      16596.033    
       900   5.0715339      305.53205      40.401459     -13051.873     -13011.472      16351.201      16604.795      16212.229      16316.937      16524.437    
       901   5.0759121      307.65176      40.681755     -13052.175     -13011.494      16277.962      16604.795      16139.273      16240.943      16453.669    
       902   5.0803327      309.75174      40.959442     -13052.475     -13011.516      16205.372      16604.795      16067.17       16164.974      16383.973    
       903   5.0849305      311.82349      41.233395     -13052.772     -13011.538      16133.665      16604.795      15996.157      16089.273      16315.565    
       904   5.089497       313.85864      41.50251      -13053.064     -13011.561      16063.104      16604.795      15926.496      16014.124      16248.691    
       905   5.093887       315.84905      41.765708     -13053.35      -13011.585      15993.914      16604.795      15858.416      15939.777      16183.55     
       906   5.0981834      317.78682      42.021945     -13053.631     -13011.609      15926.338      16604.795      15792.157      15866.49       16120.367    
       907   5.1027481      319.66429      42.270209     -13053.903     -13011.633      15860.609      16604.795      15727.955      15794.521      16059.35     
       908   5.1074061      321.47413      42.50953      -13054.168     -13011.659      15796.946      16604.795      15666.033      15724.119      16000.688    
       909   5.1118551      323.20931      42.738979     -13054.424     -13011.685      15735.558      16604.795      15606.591      15655.508      15944.576    
       910   5.1162142      324.86319      42.957676     -13054.669     -13011.712      15676.651      16604.795      15549.833      15588.929      15891.191    
       911   5.1206879      326.42947      43.16479      -13054.904     -13011.739      15620.415      16604.795      15495.945      15524.607      15840.694    
       912   5.1252158      327.90228      43.359544     -13055.127     -13011.768      15567.046      16604.795      15445.121      15462.752      15793.264    
       913   5.1297464      329.27616      43.541216     -13055.338     -13011.797      15516.693      16604.795      15397.502      15403.552      15749.026    
       914   5.1340722      330.54609      43.709144     -13055.537     -13011.828      15469.514      16604.795      15353.241      15347.189      15708.111    
       915   5.1383847      331.70752      43.862723     -13055.722     -13011.859      15425.655      16604.795      15312.472      15293.848      15670.646    
       916   5.1429778      332.75637      44.001416     -13055.893     -13011.891      15385.241      16604.795      15275.321      15243.67       15636.732    
       917   5.1475623      333.68905      44.124747     -13056.05      -13011.925      15348.376      16604.795      15241.886      15196.796      15606.447    
       918   5.1520198      334.50245      44.232305     -13056.192     -13011.959      15315.16       16604.795      15212.251      15153.353      15579.877    
       919   5.1563869      335.19399      44.32375      -13056.319     -13011.995      15285.656      16604.795      15186.477      15113.437      15557.055    
       920   5.1608336      335.76159      44.398806     -13056.43      -13012.031      15259.929      16604.795      15164.622      15077.139      15538.025    
       921   5.1654349      336.20371      44.457268     -13056.526     -13012.069      15238.015      16604.795      15146.712      15044.524      15522.81     
       922   5.1699499      336.5193       44.499        -13056.607     -13012.108      15219.941      16604.795      15132.776      15015.644      15511.402    
       923   5.1743081      336.70786      44.523934     -13056.671     -13012.148      15205.71       16604.795      15122.791      14990.539      15503.799    
       924   5.1786452      336.76941      44.532073     -13056.72      -13012.188      15195.308      16604.795      15116.765      14969.217      15499.943    
       925   5.1832603      336.70448      44.523487     -13056.754     -13012.23       15188.708      16604.795      15114.647      14951.679      15499.798    
       926   5.1879445      336.51412      44.498315     -13056.771     -13012.273      15185.867      16604.795      15116.395      14937.903      15503.303    
       927   5.1923532      336.19988      44.456762     -13056.773     -13012.317      15186.72       16604.795      15121.944      14927.855      15510.361    
       928   5.1967046      335.76382      44.399101     -13056.761     -13012.361      15191.198      16604.795      15131.214      14921.496      15520.882    
       929   5.2011572      335.20847      44.325665     -13056.733     -13012.407      15199.201      16604.795      15144.113      14918.743      15534.748    
       930   5.2057924      334.53684      44.236853     -13056.69      -13012.453      15210.632      16604.795      15160.535      14919.527      15551.833    
       931   5.2103005      333.75239      44.133122     -13056.634     -13012.501      15225.375      16604.795      15180.361      14923.759      15572.004    
       932   5.2146299      332.859        44.014988     -13056.564     -13012.549      15243.295      16604.795      15203.462      14931.319      15595.103    
       933   5.2189898      331.861        43.883019     -13056.481     -13012.597      15264.259      16604.795      15229.703      14942.105      15620.97     
       934   5.2236336      330.76309      43.737838     -13056.385     -13012.647      15288.117      16604.795      15258.929      14955.98       15649.44     
       935   5.2281765      329.57032      43.580115     -13056.277     -13012.697      15314.697      16604.795      15290.975      14972.794      15680.321    
       936   5.2325082      328.28813      43.410566     -13056.158     -13012.747      15343.842      16604.795      15325.678      14992.41       15713.438    
       937   5.2369024      326.92223      43.229949     -13056.028     -13012.798      15375.371      16604.795      15362.864      15014.668      15748.582    
       938   5.2414139      325.47865      43.03906      -13055.889     -13012.85       15409.098      16604.795      15402.333      15039.398      15785.562    
       939   5.246025       323.96365      42.838727     -13055.74      -13012.901      15444.828      16604.795      15443.904      15066.421      15824.159    
       940   5.2504273      322.38374      42.629811     -13055.583     -13012.953      15482.361      16604.795      15487.364      15095.557      15864.163    
       941   5.2547117      320.74562      42.413197     -13055.418     -13013.005      15521.498      16604.795      15532.512      15126.618      15905.364    
       942   5.2591674      319.05614      42.189791     -13055.247     -13013.058      15562.032      16604.795      15579.148      15159.408      15947.542    
       943   5.2639276      317.32229      41.960519     -13055.07      -13013.11       15603.744      16604.795      15627.034      15193.732      15990.465    
       944   5.2679864      315.55115      41.726316     -13054.888     -13013.162      15646.419      16604.795      15675.953      15229.38       16033.925    
       945   5.2740737      313.74989      41.488129     -13054.703     -13013.214      15689.839      16604.795      15725.683      15266.152      16077.682    
       946   5.2784823      311.92566      41.246906     -13054.514     -13013.267      15733.776      16604.795      15775.98       15303.833      16121.515    
       947   5.2842988      310.08566      41.003597     -13054.322     -13013.319      15778.017      16604.795      15826.626      15342.22       16165.204    
       948   5.2890637      308.23701      40.759144     -13054.129     -13013.37       15822.338      16604.795      15877.375      15381.109      16208.531    
       949   5.2934868      306.3868       40.514485     -13053.936     -13013.422      15866.513      16604.795      15927.995      15420.281      16251.264    
       950   5.2979247      304.54198      40.270539     -13053.743     -13013.473      15910.329      16604.795      15978.249      15459.536      16293.202    
       951   5.302423       302.70941      40.028212     -13053.552     -13013.524      15953.566      16604.795      16027.903      15498.664      16334.13     
       952   5.3070231      300.89576      39.788388     -13053.362     -13013.574      15996.011      16604.795      16076.718      15537.472      16373.843    
       953   5.3115008      299.10752      39.551923     -13053.176     -13013.624      16037.455      16604.795      16124.471      15575.751      16412.141    
       954   5.3158392      297.35096      39.319648     -13052.993     -13013.673      16077.698      16604.795      16170.929      15613.332      16448.832    
       955   5.3202387      295.63212      39.09236      -13052.814     -13013.722      16116.548      16604.795      16215.874      15650.02       16483.748    
       956   5.3249461      293.95675      38.87082      -13052.641     -13013.77       16153.815      16604.795      16259.098      15685.645      16516.701    
       957   5.3295446      292.33031      38.655752     -13052.473     -13013.818      16189.322      16604.795      16300.396      15720.033      16547.538    
       958   5.3339512      290.75798      38.447837     -13052.312     -13013.865      16222.894      16604.795      16339.558      15753.025      16576.098    
       959   5.3383395      289.24458      38.247715     -13052.159     -13013.911      16254.377      16604.795      16376.403      15784.477      16602.251    
       960   5.3428882      287.79457      38.055976     -13052.012     -13013.956      16283.633      16604.795      16410.765      15814.257      16625.877    
       961   5.3474744      286.41208      37.873166     -13051.874     -13014.001      16310.516      16604.795      16442.466      15842.231      16646.852    
       962   5.3519966      285.10084      37.699776     -13051.745     -13014.045      16334.91       16604.795      16471.369      15868.282      16665.078    
       963   5.3563098      283.8642       37.536251     -13051.625     -13014.089      16356.709      16604.795      16497.332      15892.31       16680.486    
       964   5.3607192      282.70509      37.382979     -13051.515     -13014.132      16375.826      16604.795      16520.242      15914.229      16693.007    
       965   5.3653338      281.62607      37.240297     -13051.414     -13014.174      16392.16       16604.795      16539.978      15933.943      16702.558    
       966   5.3699882      280.62926      37.108485     -13051.323     -13014.215      16405.666      16604.795      16556.467      15951.4        16709.132    
       967   5.3744568      279.71638      36.987771     -13051.243     -13014.255      16416.286      16604.795      16569.637      15966.533      16712.688    
       968   5.3788481      278.88871      36.878327     -13051.173     -13014.295      16423.996      16604.795      16579.435      15979.32       16713.232    
       969   5.383326       278.14716      36.780269     -13051.114     -13014.334      16428.767      16604.795      16585.821      15989.714      16710.765    
       970   5.3879284      277.49219      36.69366      -13051.066     -13014.372      16430.606      16604.795      16588.793      15997.712      16705.313    
       971   5.3925008      276.92385      36.618507     -13051.028     -13014.41       16429.509      16604.795      16588.334      16003.289      16696.906    
       972   5.3969375      276.44182      36.554766     -13051.001     -13014.447      16425.526      16604.795      16584.485      16006.481      16685.613    
       973   5.4012455      276.04535      36.502341     -13050.985     -13014.483      16418.682      16604.795      16577.273      16007.293      16671.481    
       974   5.4057658      275.73334      36.461082     -13050.979     -13014.518      16409.049      16604.795      16566.766      16005.768      16654.612    
       975   5.410466       275.50429      36.430794     -13050.983     -13014.553      16396.681      16604.795      16553.029      16001.94       16635.075    
       976   5.4151424      275.35635      36.411231     -13050.998     -13014.586      16381.684      16604.795      16536.172      15995.878      16613.003    
       977   5.4195966      275.28732      36.402104     -13051.022     -13014.62       16364.141      16604.795      16516.287      15987.638      16588.498    
       978   5.4240191      275.29468      36.403077     -13051.055     -13014.652      16344.18       16604.795      16493.52       15977.32       16561.701    
       979   5.4285024      275.37558      36.413775     -13051.098     -13014.684      16321.909      16604.795      16468.006      15964.987      16532.735    
       980   5.4331289      275.52691      36.433785     -13051.149     -13014.715      16297.479      16604.795      16439.9        15950.762      16501.775    
       981   5.4376775      275.74524      36.462655     -13051.209     -13014.746      16271.028      16604.795      16409.378      15934.744      16468.96     
       982   5.4420506      276.02692      36.499903     -13051.276     -13014.776      16242.722      16604.795      16376.63       15917.059      16434.477    
       983   5.446402       276.36807      36.545014     -13051.35      -13014.805      16212.713      16604.795      16341.836      15897.826      16398.478    
       984   5.4509626      276.76459      36.597448     -13051.432     -13014.834      16181.193      16604.795      16305.219      15877.195      16361.166    
       985   5.4556454      277.21222      36.656639     -13051.519     -13014.862      16148.323      16604.795      16266.978      15855.286      16322.704    
       986   5.4601048      277.70653      36.722003     -13051.612     -13014.89       16114.31       16604.795      16227.353      15832.275      16283.302    
       987   5.4644899      278.24296      36.792937     -13051.71      -13014.917      16079.336      16604.795      16186.561      15808.301      16243.146    
       988   5.4689504      278.81688      36.868828     -13051.813     -13014.944      16043.6        16604.795      16144.838      15783.525      16202.435    
       989   5.4750351      279.42356      36.949051     -13051.919     -13014.97       16007.306      16604.795      16102.433      15758.114      16161.372    
       990   5.4791826      280.05823      37.032976     -13052.029     -13014.996      15970.644      16604.795      16059.567      15732.231      16120.135    
       991   5.4836503      280.71613      37.119973     -13052.141     -13015.021      15933.83       16604.795      16016.502      15706.052      16078.936    
       992   5.4879777      281.39251      37.209412     -13052.255     -13015.046      15897.046      16604.795      15973.456      15679.725      16037.958    
       993   5.4924418      282.08265      37.300671     -13052.371     -13015.07       15860.504      16604.795      15930.685      15653.433      15997.395    
       994   5.4971426      282.78192      37.393138     -13052.487     -13015.094      15824.384      16604.795      15888.403      15627.326      15957.423    
       995   5.5032192      283.48579      37.486213     -13052.604     -13015.117      15788.884      16604.795      15846.856      15601.573      15918.225    
       996   5.5075883      284.18986      37.579314     -13052.72      -13015.141      15754.182      16604.795      15806.246      15576.329      15879.971    
       997   5.5118822      284.88988      37.671881     -13052.835     -13015.163      15720.446      16604.795      15766.786      15551.732      15842.819    
       998   5.5163496      285.5818       37.763375     -13052.949     -13015.186      15687.85       16604.795      15728.686      15527.94       15806.923    
       999   5.5209153      286.26175      37.853287     -13053.061     -13015.208      15656.543      16604.795      15692.136      15505.069      15772.424    
      1000   5.5254654      286.9261       37.941136     -13053.171     -13015.23       15626.678      16604.795      15657.313      15483.261      15739.46     
Loop time of 5.5255 on 16 procs for 1000 steps with 1024 atoms

Performance: 15.637 ns/day, 1.535 hours/ns, 180.979 timesteps/s
99.2% CPU use with 16 MPI tasks x 1 OpenMP threads

MPI task timing breakdown:
Section |  min time  |  avg time  |  max time  |%varavg| %total
---------------------------------------------------------------
Pair    | 4.7885     | 4.8626     | 4.9367     |   1.6 | 88.00
Neigh   | 0          | 0          | 0          |   0.0 |  0.00
Comm    | 0.23946    | 0.30751    | 0.38392    |   6.9 |  5.57
Output  | 0.30295    | 0.30528    | 0.32843    |   1.1 |  5.52
Modify  | 0.015908   | 0.017894   | 0.020424   |   1.2 |  0.32
Other   |            | 0.0322     |            |       |  0.58

Nlocal:             64 ave          64 max          64 min
Histogram: 16 0 0 0 0 0 0 0 0 0
Nghost:            887 ave         887 max         887 min
Histogram: 16 0 0 0 0 0 0 0 0 0
Neighs:              0 ave           0 max           0 min
Histogram: 16 0 0 0 0 0 0 0 0 0
FullNghs:         5632 ave        5632 max        5632 min
Histogram: 16 0 0 0 0 0 0 0 0 0

Total # of neighbors = 90112
Ave neighs/atom = 88
Neighbor list builds = 0
Dangerous builds = 0


--------------------------------------------------------------------------

                               FLOPs Report

--------------------------------------------------------------------------
         alloc:     0.0000 GFlops,       0.0001 secs,       0.0000 GFLOP/s
         setup:     0.0000 GFlops,       0.2551 secs,       0.0000 GFLOP/s
   fnn->interp:     3.4243 GFlops,       1.5250 secs,       2.2454 GFLOP/s
             P:     7.2090 GFlops,       0.5337 secs,      13.5079 GFLOP/s
             Q:     0.4506 GFlops,       0.0889 secs,       5.0694 GFLOP/s
             G:     0.0020 GFlops,       0.0116 secs,       0.1772 GFLOP/s
   nn->compute:    12.7224 GFlops,       0.4785 secs,      26.5891 GFLOP/s
          dEdP:     0.4547 GFlops,       0.1124 secs,       4.0458 GFLOP/s
            UV:    14.4179 GFlops,       1.0171 secs,      14.1754 GFLOP/s
            F1:     0.3773 GFlops,       0.3808 secs,       0.9909 GFLOP/s
            F2:     0.2422 GFlops,       0.3866 secs,       0.6264 GFLOP/s
        forces:     0.0676 GFlops,       0.0434 secs,       1.5560 GFLOP/s
--------------------------------------------------------------------------
       Overall:    39.3679 GFlops,       4.8333 secs,       8.1452 GFLOP/s
--------------------------------------------------------------------------

Total wall time: 0:00:05
