LAMMPS (4 May 2022)
  using 1 OpenMP thread(s) per MPI task
variable                    T equal 300
variable                    R equal 984523

units		                metal
dimension                   3
boundary	                p p p
atom_style	                atomic

lattice                     bcc 3.189
Lattice spacing in x,y,z = 3.189 3.189 3.189
region                      box block 0 30 0 30 0 30
create_box                  1 box
Created orthogonal box = (0 0 0) to (95.67 95.67 95.67)
  3 by 4 by 4 MPI processor grid
create_atoms                1 box
Created 54000 atoms
  using lattice units in orthogonal box = (0 0 0) to (95.67 95.67 95.67)
  create_atoms CPU = 0.007 seconds

pair_style	                tensormd
pair_coeff	                * * ../../../W_k32_snapshot.npz W

mass                        1 183.8

neighbor                    1.0 bin
neigh_modify                every 1 delay 0 check yes

thermo                      20
thermo_style                custom step cpu temp ke pe etotal press vol pxx pyy pzz

velocity                    all create $T $R dist gaussian
velocity                    all create 300 $R dist gaussian
velocity                    all create 300 984523 dist gaussian
fix                         1 all nvt temp $T $T 0.1
fix                         1 all nvt temp 300 $T 0.1
fix                         1 all nvt temp 300 300 0.1
# dump                        1 all custom 1 dump.fnn id type x y z fx fy fz

run                         1000
Neighbor list info ...
  update every 1 steps, delay 0 steps, check yes
  max neighbors/atom: 2000, page size: 100000
  master list distance cutoff = 7
  ghost atom cutoff = 7
  binsize = 3.5, bins = 28 28 28
  1 neighbor lists, perpetual/occasional/extra = 1 0 0
  (1) pair tensormd, perpetual
      attributes: full, newton on
      pair build: full/bin/atomonly
      stencil: full/bin/3d
      bin: standard
Per MPI rank memory allocation (min/avg/max) = 279.4 | 280.6 | 281.9 Mbytes
   Step          CPU            Temp          KinEng         PotEng         TotEng         Press          Volume          Pxx            Pyy            Pzz      
         0   0              300            2093.9756     -690382.96     -688288.99      1556.4998      875643.49      1567.4918      1543.4238      1558.5838    
        20   12.492895      210.82081      1471.5121     -689756.79     -688285.28      5618.0014      875643.49      5633.0055      5607.8045      5613.1942    
        40   25.024955      63.700281      444.62277     -688717.26     -688272.63      11807.877      875643.49      11830.89       11803.318      11789.424    
        60   37.575331      46.607208      325.31452     -688591.26     -688265.94      11961.986      875643.49      11983.887      11960.472      11941.6      
        80   50.11602       149.43306      1043.0306     -689291.43     -688248.4       7295.428       875643.49      7306.7681      7292.1536      7287.3624    
       100   62.655432      216.62883      1512.0516     -689728.62     -688216.57      4995.4237      875643.49      5002.5637      4988.6441      4995.0633    
       120   75.186423      192.38001      1342.7968     -689526.77     -688183.97      7035.807       875643.49      7048.2723      7029.4308      7029.7179    
       140   87.719829      151.21373      1055.4596     -689209.82     -688154.36      9181.1459      875643.49      9195.2277      9176.4468      9171.7633    
       160   100.2476       146.45385      1022.2359     -689148.24     -688126.01      9120.5818      875643.49      9124.1531      9115.7044      9121.888     
       180   112.78316      151.70058      1058.8577     -689154.92     -688096.07      8773.6627      875643.49      8761.9147      8770.1302      8788.9433    
       200   125.31903      150.75575      1052.2628     -689117.52     -688065.26      9218.671       875643.49      9200.9004      9217.6971      9237.4155    
       220   137.8606       169.75018      1184.8424     -689217.48     -688032.64      8912.5355      875643.49      8903.793       8912.5254      8921.2879    
       240   150.38758      200.97113      1402.7621     -689398.53     -687995.77      7764.8042      875643.49      7771.1562      7765.162       7758.0942    
       260   162.91494      195.10714      1361.8319     -689319.52     -687957.69      8089.5316      875643.49      8103.4093      8089.0858      8076.0998    
       280   175.44826      155.3114       1084.061      -689006.79     -687922.73      10085.582      875643.49      10094.354      10078.907      10083.486    
       300   187.99368      146.55597      1022.9487     -688913.51     -687890.57      10864.095      875643.49      10860.358      10854.838      10877.09     
       320   200.53825      187.83666      1311.0846     -689165.39     -687854.3       9373.5592      875643.49      9360.8249      9371.1573      9388.6953    
       340   213.07383      215.43598      1503.7256     -689316.68     -687812.95      8328.6262      875643.49      8315.858       8333.9094      8336.1111    
       360   225.61935      191.67728      1337.8918     -689110.83     -687772.94      9578.7276      875643.49      9576.8048      9582.0427      9577.3352    
       380   238.15936      165.9427       1158.2665     -688894.14     -687735.88      11022.909      875643.49      11034.789      11015.35       11018.589    
       400   250.70955      184.72938      1289.3961     -688987.2      -687697.81      10570.711      875643.49      10587.331      10555.93       10568.873    
       420   263.24666      215.43367      1503.7094     -689159.16     -687655.46      9542.3253      875643.49      9548.3253      9538.6443      9540.0065    
       440   275.78832      210.38356      1468.4601     -689081.29     -687612.83      10013.638      875643.49      10006.302      10026.918      10007.695    
       460   288.32893      187.67519      1309.9575     -688882.33     -687572.37      11257.013      875643.49      11253.924      11270.265      11246.852    
       480   300.8726       191.11081      1333.9379     -688865.91     -687531.97      11401.19       875643.49      11418.03       11400.408      11385.132    
       500   313.42035      214.66548      1498.3476     -688987.16     -687488.82      10691.15       875643.49      10727.36       10679.626      10666.466    
       520   325.96494      222.83293      1555.3557     -688999.9      -687444.54      10645.522      875643.49      10678.069      10640.752      10617.745    
       540   338.51212      213.92543      1493.1821     -688894.52     -687401.34      11366.704      875643.49      11372.976      11380.747      11346.39     
       560   351.06343      212.24976      1481.4861     -688839.77     -687358.29      11800.133      875643.49      11793.169      11818.15       11789.081    
       580   363.60054      220.65627      1540.1628     -688854.34     -687314.18      11749.131      875643.49      11757.9        11751.774      11737.72     
       600   376.1548       223.59582      1560.6806     -688830.35     -687269.67      11851.384      875643.49      11886.257      11841.271      11826.622    
       620   388.69812      222.27739      1551.4781     -688776.93     -687225.45      12173.327      875643.49      12219.575      12165.67       12134.736    
       640   401.24539      229.52858      1602.0908     -688782.84     -687180.75      12260.355      875643.49      12294.471      12268.288      12218.307    
       660   413.78652      240.92866      1681.6624     -688817.01     -687135.35      12182.745      875643.49      12200.342      12206.984      12140.909    
       680   426.32969      242.0426       1689.4377     -688779.96     -687090.52      12402.607      875643.49      12419.251      12426.359      12362.21     
       700   438.88199      235.2508       1642.0314     -688688.55     -687046.51      12899.371      875643.49      12924.366      12909.181      12864.567    
       720   451.43773      235.16783      1641.4523     -688643.62     -687002.17      13235.112      875643.49      13258.757      13234.252      13212.326    
       740   463.98313      244.69197      1707.93       -688664.85     -686956.92      13247.659      875643.49      13259.4        13247.237      13236.341    
       760   476.53099      253.50154      1769.4201     -688681.1      -686911.68      13172.797      875643.49      13171.37       13176.335      13170.686    
       780   489.0864       256.42121      1789.7992     -688657.24     -686867.44      13249.35       875643.49      13240.726      13260.25       13247.074    
       800   501.63216      257.53548      1797.5766     -688621.55     -686823.97      13509.273      875643.49      13505.761      13532.334      13489.724    
       820   514.18203      258.55945      1804.7239     -688585.53     -686780.81      13900.511      875643.49      13901.931      13926.779      13872.824    
       840   526.72237      258.32083      1803.0583     -688540.9      -686737.85      14256.292      875643.49      14253.654      14269.281      14245.94     
       860   539.27388      260.74878      1820.0052     -688514.86     -686694.85      14339.933      875643.49      14338.322      14336.814      14344.662    
       880   551.82155      269.34066      1879.9759     -688531.81     -686651.83      14207.063      875643.49      14209.68       14205.936      14205.572    
       900   564.37275      277.78238      1938.8984     -688548.84     -686609.94      14233.795      875643.49      14231.113      14255.098      14215.173    
       920   576.92021      277.81327      1939.114      -688509.48     -686570.37      14595.225      875643.49      14587.224      14625.437      14573.014    
       940   589.47092      273.40297      1908.3305     -688440.49     -686532.16      14983.313      875643.49      14981.501      14989.048      14979.389    
       960   602.01936      274.67595      1917.2158     -688410.69     -686493.48      15104.674      875643.49      15113.559      15081.303      15119.161    
       980   614.57623      281.71891      1966.375      -688420.83     -686454.46      15112.102      875643.49      15120.723      15090.261      15125.323    
      1000   627.1304       286.47704      1999.5864     -688416.43     -686416.85      15252.401      875643.49      15247.262      15260.21       15249.733    
Loop time of 627.13 on 48 procs for 1000 steps with 54000 atoms

Performance: 0.138 ns/day, 174.203 hours/ns, 1.595 timesteps/s
99.5% CPU use with 48 MPI tasks x 1 OpenMP threads

MPI task timing breakdown:
Section |  min time  |  avg time  |  max time  |%varavg| %total
---------------------------------------------------------------
Pair    | 605.53     | 620.69     | 626.4      |  18.0 | 98.97
Neigh   | 0          | 0          | 0          |   0.0 |  0.00
Comm    | 0.4719     | 5.9282     | 20.829     | 182.9 |  0.95
Output  | 0.0037509  | 0.0038177  | 0.0052522  |   0.3 |  0.00
Modify  | 0.10516    | 0.48517    | 1.2251     |  49.2 |  0.08
Other   |            | 0.02735    |            |       |  0.00

Nlocal:           1125 ave        1130 max        1120 min
Histogram: 24 0 0 0 0 0 0 0 0 24
Nghost:           3051 ave        3056 max        3046 min
Histogram: 24 0 0 0 0 0 0 0 0 24
Neighs:              0 ave           0 max           0 min
Histogram: 48 0 0 0 0 0 0 0 0 0
FullNghs:        99000 ave       99440 max       98560 min
Histogram: 24 0 0 0 0 0 0 0 0 24

Total # of neighbors = 4752000
Ave neighs/atom = 88
Neighbor list builds = 0
Dangerous builds = 0


--------------------------------------------------------------------------

                               FLOPs Report

--------------------------------------------------------------------------
         alloc:     0.0000 TFlops,       0.0003 secs,       0.0000 TFLOP/s
         setup:     0.0000 TFlops,       8.3333 secs,       0.0000 TFLOP/s
        cutoff:     0.0010 TFlops,       5.1010 secs,       0.0002 TFLOP/s
  fnn->forward:     0.6369 TFlops,     395.7765 secs,       0.0016 TFLOP/s
    descriptor:     0.0063 TFlops,      20.9357 secs,       0.0003 TFLOP/s
             P:     0.1267 TFlops,      12.0534 secs,       0.0105 TFLOP/s
             Q:     0.0079 TFlops,       2.4345 secs,       0.0033 TFLOP/s
             G:     0.0000 TFlops,       0.3577 secs,       0.0001 TFLOP/s
   nn->compute:     0.2236 TFlops,      10.7143 secs,       0.0209 TFLOP/s
          dEdP:     0.0080 TFlops,       4.7483 secs,       0.0017 TFLOP/s
            UV:     0.2534 TFlops,      28.5645 secs,       0.0089 TFLOP/s
 fnn->backward:     0.6241 TFlops,     123.4876 secs,       0.0051 TFLOP/s
            F2:     0.0043 TFlops,       6.4456 secs,       0.0007 TFLOP/s
        forces:     0.0012 TFlops,       0.7738 secs,       0.0015 TFLOP/s
--------------------------------------------------------------------------
       Overall:     1.8935 TFlops,     619.7265 secs,       0.0031 TFLOP/s
--------------------------------------------------------------------------

Total wall time: 0:10:27
