LAMMPS (4 May 2022)
  using 1 OpenMP thread(s) per MPI task
variable                    T equal 300
variable                    R equal 984523

units		                metal
dimension                   3
boundary	                p p p
atom_style	                atomic

lattice                     bcc 3.189
Lattice spacing in x,y,z = 3.189 3.189 3.189
region                      box block 0 30 0 30 0 30
create_box                  1 box
Created orthogonal box = (0 0 0) to (95.67 95.67 95.67)
  3 by 4 by 4 MPI processor grid
create_atoms                1 box
Created 54000 atoms
  using lattice units in orthogonal box = (0 0 0) to (95.67 95.67 95.67)
  create_atoms CPU = 0.006 seconds

pair_style	                tensormd
pair_coeff	                * * ../../W_k32_snapshot.npz W interp 0.01 1
Use interpolation: dr = 0.0100, algo = batch

mass                        1 183.8

neighbor                    1.0 bin
neigh_modify                every 1 delay 0 check yes

thermo                      20
thermo_style                custom step cpu temp ke pe etotal press vol pxx pyy pzz

velocity                    all create $T $R dist gaussian
velocity                    all create 300 $R dist gaussian
velocity                    all create 300 984523 dist gaussian
fix                         1 all nvt temp $T $T 0.1
fix                         1 all nvt temp 300 $T 0.1
fix                         1 all nvt temp 300 300 0.1
# dump                        1 all custom 1 dump.fnn id type x y z fx fy fz

run                         1000
Neighbor list info ...
  update every 1 steps, delay 0 steps, check yes
  max neighbors/atom: 2000, page size: 100000
  master list distance cutoff = 7
  ghost atom cutoff = 7
  binsize = 3.5, bins = 28 28 28
  1 neighbor lists, perpetual/occasional/extra = 1 0 0
  (1) pair tensormd, perpetual
      attributes: full, newton on
      pair build: full/bin/atomonly
      stencil: full/bin/3d
      bin: standard
Per MPI rank memory allocation (min/avg/max) = 179.2 | 180 | 180.8 Mbytes
   Step          CPU            Temp          KinEng         PotEng         TotEng         Press          Volume          Pxx            Pyy            Pzz      
         0   0              300            2093.9756     -690382.9      -688288.93      1301.8328      875643.49      1526.1849      329.66504      2049.6484    
        20   2.6139008      225.2949       1572.5401     -689743.15     -688170.61      5542.5464      875643.49      5759.6138      4601.961       6266.0644    
        40   5.2262615      92.470886      645.43925     -688556.86     -687911.42      13043.786      875643.49      13283.517      12151.186      13696.655    
        60   7.8408029      60.443344      421.88962     -688116.39     -687694.51      15444.276      875643.49      15720.435      14590.197      16022.195    
        80   10.452226      147.32595      1028.3231     -688594.71     -687566.39      12230.921      875643.49      12542.106      11396.241      12754.416    
       100   13.068608      226.75976      1582.7646     -689046.96     -687464.19      9633.0947      875643.49      9972.0978      8798.2609      10128.925    
       120   15.682149      219.14218      1529.5946     -688901.68     -687372.09      11169.941      875643.49      11515.623      10319.164      11675.036    
       140   18.292431      171.28822      1195.5778     -688538.58     -687343.01      13693.966      875643.49      14019.607      12822.782      14239.508    
       160   20.906077      156.29793      1090.9469     -688497.95     -687407.01      13512.582      875643.49      13800.531      12622.036      14115.181    
       180   23.519458      172.91588      1206.9387     -688711.94     -687505         11508.703      875643.49      11751.467      10605.405      12169.236    
       200   26.131948      180.29341      1258.4333     -688816.67     -687558.24      10681.184      875643.49      10884.568      9776.2818      11382.701    
       220   28.747398      177.89136      1241.6672     -688798.85     -687557.18      11193.753      875643.49      11379.911      10295.402      11905.946    
       240   31.360737      193.4706       1350.409      -688883.17     -687532.76      11067.013      875643.49      11262.416      10180.351      11758.272    
       260   33.974461      217.8257       1520.4056     -689000.49     -687480.09      10364.532      875643.49      10576.875      9498.4284      11018.293    
       280   36.589032      212.9922       1486.6682     -688858.16     -687371.49      11224.305      875643.49      11446.115      10376.776      11850.022    
       300   39.205679      182.66439      1274.9825     -688505.19     -687230.21      13669.486      875643.49      13893.811      12821.111      14293.534    
       320   41.818417      175.31903      1223.7125     -688350.56     -687126.85      14940.828      875643.49      15170.454      14075.609      15576.42     
       340   44.437715      208.81901      1457.5397     -688544.14     -687086.6       13736.129      875643.49      13977.538      12846.353      14384.496    
       360   47.060634      239.06801      1668.6753     -688725.82     -687057.14      12321.086      875643.49      12579.082      11411.413      12972.764    
       380   49.674845      228.8098       1597.0737     -688586.57     -686989.5       13110.841      875643.49      13391.249      12189.443      13751.83     
       400   52.291211      203.34954      1419.3633     -688324.44     -686905.07      14999.353      875643.49      15295.669      14071.843      15630.547    
       420   54.913089      206.62372      1442.2167     -688297.93     -686855.71      15393.306      875643.49      15684.064      14474.229      16021.626    
       440   57.526344      233.68171      1631.0793     -688473.72     -686842.64      14212.597      875643.49      14479.558      13321.383      14836.851    
       460   60.138547      244.72367      1708.1513     -688531.13     -686822.98      13639.112      875643.49      13884.084      12781.518      14251.732    
       480   62.756635      231.83735      1618.2058     -688397.2      -686779         14496.093      875643.49      14729.444      13659.605      15099.23     
       500   65.375514      226.36174      1579.9865     -688314.75     -686734.77      15232.436      875643.49      15467.095      14389.583      15840.63     
       520   67.991492      243.00054      1696.124      -688398.81     -686702.69      14817.533      875643.49      15073.93       13941.782      15436.888    
       540   70.610771      258.343        1803.2131     -688458.46     -686655.24      14351.268      875643.49      14629.781      13445.131      14978.891    
       560   73.229614      253.65641      1770.5011     -688338.26     -686567.76      15071.938      875643.49      15349.153      14162.854      15703.807    
       580   75.845894      244.4633       1706.3339     -688163.54     -686457.21      16357.25       875643.49      16631.462      15457.739      16982.549    
       600   78.466252      251.81931      1757.6783     -688116.88     -686359.2       16896.941      875643.49      17199.423      15996.105      17495.294    
       620   81.084204      268.37226      1873.2165     -688157.91     -686284.69      16723.317      875643.49      17065.822      15821.442      17282.686    
       640   83.701531      273.3778       1908.1548     -688131.75     -686223.59      16830.957      875643.49      17189.251      15940.434      17363.186    
       660   86.321149      267.06896      1864.1196     -688039.78     -686175.67      17379.981      875643.49      17717.522      16504.792      17917.63     
       680   88.94297       267.1349       1864.5799     -688015.08     -686150.5       17568.478      875643.49      17855.188      16702.571      18147.675    
       700   91.56006       278.43054      1943.4225     -688083.82     -686140.4       17137.961      875643.49      17381.551      16268.618      17763.714    
       720   94.176606      287.418        2006.1543     -688123.88     -686117.73      16840.561      875643.49      17080.5        15963.215      17477.968    
       740   96.794612      286.2232       1997.8146     -688063.84     -686066.02      17212.137      875643.49      17477.099      16329.891      17829.422    
       760   99.412438      283.59417      1979.4642     -687975.3      -685995.84      17834.788      875643.49      18123.779      16952.765      18427.819    
       780   102.03139      288.23666      2011.8684     -687936.68     -685924.81      18170.659      875643.49      18473.658      17295.831      18742.486    
       800   104.64863      296.31561      2068.2588     -687926.86     -685858.6       18324.312      875643.49      18633.382      17455.859      18883.694    
       820   107.27619      300.76957      2099.3471     -687897.61     -685798.26      18623.619      875643.49      18932.269      17761.816      19176.771    
       840   109.89825      302.10152      2108.644      -687860.25     -685751.6       18964.246      875643.49      19265.644      18107.961      19519.134    
       860   112.51773      304.09384      2122.5502     -687846.45     -685723.9       19072.77       875643.49      19343.089      18213.658      19661.563    
       880   115.13739      306.29588      2137.9203     -687843.27     -685705.35      19051.064      875643.49      19276.053      18172.609      19704.529    
       900   117.7557       307.17921      2144.0859     -687825.44     -685681.35      19139.179      875643.49      19333.693      18227.198      19856.646    
       920   120.37665      309.06121      2157.2221     -687807.72     -685650.49      19269.756      875643.49      19462.705      18336.937      20009.625    
       940   123.00092      313.63603      2189.154      -687811.48     -685622.33      19247.006      875643.49      19458.361      18324.899      19957.757    
       960   125.61894      316.42735      2208.6372     -687810.47     -685601.83      19220.385      875643.49      19461.115      18321.283      19878.756    
       980   128.24022      313.04072      2184.9987     -687772.08     -685587.08      19466.356      875643.49      19722.574      18596.287      20080.207    
      1000   130.85906      307.8474       2148.7498     -687729.47     -685580.72      19796.577      875643.49      20030.05       18967.886      20391.794    
Loop time of 130.859 on 48 procs for 1000 steps with 54000 atoms

Performance: 0.660 ns/day, 36.350 hours/ns, 7.642 timesteps/s
98.6% CPU use with 48 MPI tasks x 1 OpenMP threads

MPI task timing breakdown:
Section |  min time  |  avg time  |  max time  |%varavg| %total
---------------------------------------------------------------
Pair    | 125.51     | 128.81     | 130.46     |   8.9 | 98.44
Neigh   | 0          | 0          | 0          |   0.0 |  0.00
Comm    | 0.29706    | 1.7556     | 5.2343     |  77.0 |  1.34
Output  | 0.0036116  | 0.003781   | 0.0052193  |   0.3 |  0.00
Modify  | 0.049941   | 0.25642    | 0.53221    |  37.2 |  0.20
Other   |            | 0.0293     |            |       |  0.02

Nlocal:           1125 ave        1130 max        1120 min
Histogram: 24 0 0 0 0 0 0 0 0 24
Nghost:           3051 ave        3056 max        3046 min
Histogram: 24 0 0 0 0 0 0 0 0 24
Neighs:              0 ave           0 max           0 min
Histogram: 48 0 0 0 0 0 0 0 0 0
FullNghs:        99000 ave       99440 max       98560 min
Histogram: 24 0 0 0 0 0 0 0 0 24

Total # of neighbors = 4752000
Ave neighs/atom = 88
Neighbor list builds = 0
Dangerous builds = 0


--------------------------------------------------------------------------

                               FLOPs Report

--------------------------------------------------------------------------
         alloc:     0.0000 GFlops,       0.0002 secs,       0.0000 GFLOP/s
         setup:     0.0000 GFlops,      29.0718 secs,       0.0000 GFLOP/s
   fnn->interp:    60.1920 GFlops,      21.8551 secs,       2.7541 GFLOP/s
             P:   126.7200 GFlops,      11.2570 secs,      11.2570 GFLOP/s
             Q:     7.9200 GFlops,       2.0262 secs,       3.9088 GFLOP/s
             G:     0.0360 GFlops,       0.3492 secs,       0.1031 GFLOP/s
   nn->compute:   223.6354 GFlops,      11.2654 secs,      19.8516 GFLOP/s
          dEdP:     7.9920 GFlops,       6.0762 secs,       1.3153 GFLOP/s
            UV:   253.4400 GFlops,      28.7422 secs,       8.8177 GFLOP/s
            F1:     6.6330 GFlops,       8.0850 secs,       0.8204 GFLOP/s
            F2:     4.2570 GFlops,       8.7186 secs,       0.4883 GFLOP/s
        forces:     1.1880 GFlops,       0.7594 secs,       1.5644 GFLOP/s
--------------------------------------------------------------------------
       Overall:   692.0134 GFlops,     128.2062 secs,       5.3977 GFLOP/s
--------------------------------------------------------------------------

Total wall time: 0:02:11
