LAMMPS (4 May 2022)
  using 1 OpenMP thread(s) per MPI task
variable                    T equal 300
variable                    R equal 984523

units		                metal
dimension                   3
boundary	                p p p
atom_style	                atomic

lattice                     bcc 3.189
Lattice spacing in x,y,z = 3.189 3.189 3.189
region                      box block 0 30 0 30 0 30
create_box                  1 box
Created orthogonal box = (0 0 0) to (95.67 95.67 95.67)
  3 by 4 by 4 MPI processor grid
create_atoms                1 box
Created 54000 atoms
  using lattice units in orthogonal box = (0 0 0) to (95.67 95.67 95.67)
  create_atoms CPU = 0.007 seconds

pair_style	                tensormd
pair_coeff	                * * ../../../W_k32_snapshot.npz W interp 0.0005 1
Use interpolation: dr = 0.0005, algo = batch

mass                        1 183.8

neighbor                    1.0 bin
neigh_modify                every 1 delay 0 check yes

thermo                      20
thermo_style                custom step cpu temp ke pe etotal press vol pxx pyy pzz

velocity                    all create $T $R dist gaussian
velocity                    all create 300 $R dist gaussian
velocity                    all create 300 984523 dist gaussian
fix                         1 all nvt temp $T $T 0.1
fix                         1 all nvt temp 300 $T 0.1
fix                         1 all nvt temp 300 300 0.1
# dump                        1 all custom 1 dump.fnn id type x y z fx fy fz

run                         1000
Neighbor list info ...
  update every 1 steps, delay 0 steps, check yes
  max neighbors/atom: 2000, page size: 100000
  master list distance cutoff = 7
  ghost atom cutoff = 7
  binsize = 3.5, bins = 28 28 28
  1 neighbor lists, perpetual/occasional/extra = 1 0 0
  (1) pair tensormd, perpetual
      attributes: full, newton on
      pair build: full/bin/atomonly
      stencil: full/bin/3d
      bin: standard
Per MPI rank memory allocation (min/avg/max) = 145.2 | 145.8 | 146.4 Mbytes
   Step          CPU            Temp          KinEng         PotEng         TotEng         Press          Volume          Pxx            Pyy            Pzz      
         0   0              300            2093.9756     -690382.96     -688288.99      1556.7496      875643.49      1567.7416      1543.6736      1558.8336    
        20   2.1613377      210.82081      1471.5121     -689756.79     -688285.28      5618.0016      875643.49      5633.0049      5607.805       5613.1949    
        40   4.3838042      63.700281      444.62277     -688717.26     -688272.63      11807.877      875643.49      11830.89       11803.318      11789.424    
        60   6.6529662      46.607208      325.31452     -688591.26     -688265.94      11961.986      875643.49      11983.887      11960.472      11941.6      
        80   8.9069934      149.43306      1043.0306     -689291.43     -688248.4       7295.4282      875643.49      7306.7683      7292.1542      7287.3622    
       100   11.13075       216.62883      1512.0516     -689728.62     -688216.57      4995.4234      875643.49      5002.5635      4988.6434      4995.0632    
       120   13.325776      192.38001      1342.7968     -689526.77     -688183.97      7035.8072      875643.49      7048.2728      7029.4308      7029.7179    
       140   15.536981      151.21373      1055.4596     -689209.82     -688154.36      9181.1457      875643.49      9195.2274      9176.4471      9171.7628    
       160   17.767098      146.45385      1022.2359     -689148.24     -688126.01      9120.582       875643.49      9124.153       9115.7043      9121.8887    
       180   20.007516      151.70058      1058.8577     -689154.92     -688096.07      8773.6625      875643.49      8761.9144      8770.13        8788.9432    
       200   22.250176      150.75575      1052.2628     -689117.52     -688065.26      9218.6704      875643.49      9200.9         9217.6962      9237.4149    
       220   24.487319      169.75018      1184.8424     -689217.48     -688032.64      8912.5356      875643.49      8903.7932      8912.5254      8921.2882    
       240   26.710929      200.97113      1402.7621     -689398.53     -687995.77      7764.8047      875643.49      7771.1569      7765.1625      7758.0948    
       260   28.930158      195.10714      1361.8319     -689319.52     -687957.69      8089.5318      875643.49      8103.4096      8089.0856      8076.1002    
       280   31.159137      155.3114       1084.0609     -689006.79     -687922.73      10085.582      875643.49      10094.354      10078.907      10083.486    
       300   33.401618      146.55597      1022.9487     -688913.51     -687890.57      10864.096      875643.49      10860.358      10854.838      10877.091    
       320   35.644183      187.83666      1311.0846     -689165.39     -687854.3       9373.5591      875643.49      9360.8249      9371.1569      9388.6956    
       340   37.879878      215.43598      1503.7256     -689316.68     -687812.95      8328.6262      875643.49      8315.858       8333.9093      8336.1114    
       360   40.109504      191.67728      1337.8918     -689110.83     -687772.94      9578.7276      875643.49      9576.8047      9582.0428      9577.3352    
       380   42.351121      165.9427       1158.2665     -688894.14     -687735.88      11022.91       875643.49      11034.79       11015.35       11018.59     
       400   44.594913      184.72938      1289.3961     -688987.2      -687697.81      10570.711      875643.49      10587.33       10555.93       10568.873    
       420   46.831741      215.43367      1503.7094     -689159.16     -687655.46      9542.325       875643.49      9548.3248      9538.6439      9540.0063    
       440   49.068937      210.38356      1468.4601     -689081.29     -687612.83      10013.638      875643.49      10006.302      10026.917      10007.695    
       460   51.310791      187.67519      1309.9575     -688882.33     -687572.37      11257.014      875643.49      11253.923      11270.265      11246.852    
       480   53.561815      191.11081      1333.9379     -688865.91     -687531.97      11401.19       875643.49      11418.03       11400.408      11385.132    
       500   55.808803      214.66548      1498.3476     -688987.16     -687488.82      10691.15       875643.49      10727.359      10679.626      10666.466    
       520   58.05119       222.83293      1555.3557     -688999.9      -687444.54      10645.522      875643.49      10678.069      10640.753      10617.744    
       540   60.292872      213.92543      1493.1821     -688894.52     -687401.34      11366.704      875643.49      11372.975      11380.747      11346.39     
       560   62.5408        212.24976      1481.4861     -688839.77     -687358.29      11800.133      875643.49      11793.169      11818.149      11789.081    
       580   64.792477      220.65627      1540.1628     -688854.34     -687314.18      11749.132      875643.49      11757.9        11751.775      11737.72     
       600   67.049267      223.59582      1560.6806     -688830.35     -687269.67      11851.383      875643.49      11886.257      11841.271      11826.622    
       620   69.309827      222.27739      1551.4781     -688776.93     -687225.45      12173.327      875643.49      12219.575      12165.67       12134.736    
       640   71.562598      229.52858      1602.0908     -688782.84     -687180.75      12260.355      875643.49      12294.47       12268.288      12218.307    
       660   73.815104      240.92866      1681.6624     -688817.01     -687135.35      12182.745      875643.49      12200.342      12206.984      12140.909    
       680   76.06784       242.0426       1689.4377     -688779.96     -687090.52      12402.607      875643.49      12419.252      12426.359      12362.21     
       700   78.322658      235.2508       1642.0314     -688688.55     -687046.51      12899.371      875643.49      12924.366      12909.181      12864.567    
       720   80.582883      235.16783      1641.4523     -688643.62     -687002.17      13235.112      875643.49      13258.757      13234.252      13212.326    
       740   82.841992      244.69197      1707.93       -688664.85     -686956.92      13247.66       875643.49      13259.401      13247.237      13236.341    
       760   85.099716      253.50154      1769.4201     -688681.1      -686911.68      13172.797      875643.49      13171.37       13176.335      13170.686    
       780   87.361785      256.42121      1789.7992     -688657.24     -686867.44      13249.35       875643.49      13240.726      13260.25       13247.075    
       800   89.621358      257.53547      1797.5766     -688621.55     -686823.97      13509.274      875643.49      13505.762      13532.335      13489.725    
       820   91.882053      258.55945      1804.7239     -688585.53     -686780.81      13900.512      875643.49      13901.932      13926.779      13872.824    
       840   94.144409      258.32083      1803.0584     -688540.9      -686737.85      14256.291      875643.49      14253.653      14269.281      14245.94     
       860   96.413702      260.74878      1820.0052     -688514.86     -686694.85      14339.933      875643.49      14338.322      14336.815      14344.663    
       880   98.68457       269.34066      1879.9759     -688531.81     -686651.83      14207.063      875643.49      14209.68       14205.936      14205.572    
       900   100.94681      277.78238      1938.8984     -688548.84     -686609.94      14233.795      875643.49      14231.113      14255.098      14215.173    
       920   103.20808      277.81327      1939.114      -688509.48     -686570.37      14595.225      875643.49      14587.225      14625.437      14573.014    
       940   105.47343      273.40297      1908.3305     -688440.49     -686532.16      14983.313      875643.49      14981.501      14989.048      14979.389    
       960   107.73929      274.67595      1917.2158     -688410.69     -686493.48      15104.674      875643.49      15113.559      15081.302      15119.16     
       980   110.01283      281.71891      1966.375      -688420.83     -686454.46      15112.102      875643.49      15120.722      15090.26       15125.323    
      1000   112.28214      286.47704      1999.5864     -688416.43     -686416.85      15252.402      875643.49      15247.262      15260.21       15249.733    
Loop time of 112.282 on 48 procs for 1000 steps with 54000 atoms

Performance: 0.769 ns/day, 31.190 hours/ns, 8.906 timesteps/s
99.5% CPU use with 48 MPI tasks x 1 OpenMP threads

MPI task timing breakdown:
Section |  min time  |  avg time  |  max time  |%varavg| %total
---------------------------------------------------------------
Pair    | 106.63     | 109.94     | 111.92     |   9.4 | 97.92
Neigh   | 0          | 0          | 0          |   0.0 |  0.00
Comm    | 0.19049    | 2.0203     | 5.4706     |  73.2 |  1.80
Output  | 0.0033698  | 0.0034564  | 0.0047442  |   0.3 |  0.00
Modify  | 0.061231   | 0.28676    | 0.84292    |  44.7 |  0.26
Other   |            | 0.02962    |            |       |  0.03

Nlocal:           1125 ave        1130 max        1120 min
Histogram: 24 0 0 0 0 0 0 0 0 24
Nghost:           3051 ave        3056 max        3046 min
Histogram: 24 0 0 0 0 0 0 0 0 24
Neighs:              0 ave           0 max           0 min
Histogram: 48 0 0 0 0 0 0 0 0 0
FullNghs:        99000 ave       99440 max       98560 min
Histogram: 24 0 0 0 0 0 0 0 0 24

Total # of neighbors = 4752000
Ave neighs/atom = 88
Neighbor list builds = 0
Dangerous builds = 0


--------------------------------------------------------------------------

                               FLOPs Report

--------------------------------------------------------------------------
         alloc:     0.0000 GFlops,       0.0002 secs,       0.0000 GFLOP/s
         setup:     0.0000 GFlops,       8.3822 secs,       0.0000 GFLOP/s
   fnn->interp:    60.1920 GFlops,      27.0256 secs,       2.2272 GFLOP/s
             P:   126.7200 GFlops,      10.8177 secs,      11.7142 GFLOP/s
             Q:     7.9200 GFlops,       2.0354 secs,       3.8911 GFLOP/s
             G:     0.0360 GFlops,       0.2828 secs,       0.1273 GFLOP/s
   nn->compute:   223.6354 GFlops,      11.2942 secs,      19.8009 GFLOP/s
          dEdP:     7.9920 GFlops,       5.9897 secs,       1.3343 GFLOP/s
            UV:   253.4400 GFlops,      28.6607 secs,       8.8428 GFLOP/s
            F1:     6.6330 GFlops,       8.0267 secs,       0.8264 GFLOP/s
            F2:     4.2570 GFlops,       6.0591 secs,       0.7026 GFLOP/s
        forces:     1.1880 GFlops,       0.8305 secs,       1.4304 GFLOP/s
--------------------------------------------------------------------------
       Overall:   692.0134 GFlops,     109.4048 secs,       6.3253 GFLOP/s
--------------------------------------------------------------------------

Total wall time: 0:01:52
