ITEM: TIMESTEP
20
ITEM: NUMBER OF ATOMS
8192
ITEM: BOX BOUNDS pp pp pp
0.0000000000000000e+00 5.1024000000000001e+01
0.0000000000000000e+00 5.1024000000000001e+01
0.0000000000000000e+00 5.1024000000000001e+01
ITEM: ATOMS id type x y z fx fy fz
145 1     0.01324168005490     3.19754090299613     3.22029237668984    -0.30925270082898    -0.15209266985510    -0.20301553876178
2 1     1.62055679985850     1.61229236292954     1.59383088370509    -0.32421388600942    -0.14733010153860    -0.22212941251376
131 1     3.19350053791745     0.01007555377245     3.18716331327160     0.11585887622424    -0.04726622347377    -0.21361071479674
147 1     3.17959399866195     3.17866009187470     3.19502487576819     0.32724414634884     0.12698195679832    -0.34412946961353
4 1     4.81414883642282     1.58283532692864     1.59419385280824    -0.16217266232181     0.35371968900005    -0.01011329548883
149 1     6.35388334853870     3.19164989224387     3.19504996081574     0.47832979573331    -0.00000363550531    -0.24748730985583
5 1     6.41788763073548     0.00495761396092     0.03771388250469    -0.59593229774409    -0.02440674965920    -0.57430795230279
6 1     8.02653892598872     1.59486010465684     1.62991587667467    -0.88236232188922     0.06417678650494    -0.41580837648474
151 1     9.59616261556207     3.19584635698202     3.15162747983140    -0.56844773840885     0.02978294952722     0.59395753694171
23 1     9.58145826610903     3.19662375965477     0.03240162017121     0.09861423203201    -0.01687659377378    -0.37361227348322
8 1    11.16712193974031     1.59430735541224     1.62525525743159     0.07327520542987    -0.07452989416622    -0.76229139335794
137 1    12.77233055927973     0.01796728443745     3.17365498047514    -0.40124516225219    -0.27767795644045     0.35818188785948
153 1    12.76365381922664     3.20999207080724     3.20109775033680    -0.04663369756367    -0.46217362946581    -0.15581339661584
9 1    12.73023455659547     0.00342783117869     0.00162013344484     0.11385556621543     0.00209560761630    -0.22599890220955
10 1    14.31781144311311     1.58820696565328     1.57911386549613     0.56038294660074     0.15293347877524     0.09063867008875
155 1    15.94775403650879     3.16417942364370     3.15271188187059    -0.14823137473465     0.19991634202938     0.49755644100895
12 1    17.54827601015645     1.59447885465438     1.61320690851534    -0.21105699661492    -0.24383880707833    -0.56099217948030
157 1    19.13771132911229     3.19772788287631     3.11445644922049     0.04954950499778    -0.41102563282551     1.11083394994912
14 1    20.72444275650633     1.57118824618140     1.60431043967591     0.19212016693936     0.39823621151370    -0.06507338645611
16 1    23.94760389131696     1.57014106538576     1.57534362886117    -0.48102396052587     0.45925359433444     0.52424366209058
4241 1    25.49609916215883     3.18774868326504     3.21602150115687     0.24909026975865     0.02068221735060    -0.23989796446950
143 1    22.33940858054657     0.00763343501649     3.18528825919220    -0.40154143914548     0.12303537477323     0.14266661010873
159 1    22.30902025885466     3.17893313518552     3.21282722525740     0.12283981955260     0.15077674616060    -0.48820052902994
33 1     0.02677534616723     6.35678043643825     0.04015791036799    -0.42851867479673     0.35396486132972    -0.65205180766822
18 1     1.56398200953021     4.80546506332604     1.62362930518168     0.52636376141163    -0.40598602424892    -0.06564129587396
35 1     3.20513011892741     6.31475127594344     0.04783526387532    -0.20852555844626     1.31454489103486    -0.59610533734927
163 1     3.19238254921130     6.35237336384293     3.19737661489311    -0.13220757273847     0.56379640674643     0.08683248763801
20 1     4.76827140499132     4.83855438321183     1.59078642127916     0.31418723670063    -1.19036773724273     0.17781680862198
37 1     6.39072804938239     6.37829618599061     0.02425564945352    -0.14000509666018     0.08556261187541    -0.42641828208677
165 1     6.36237375613830     6.37040206499375     3.18064335739398     0.40991727166538     0.13928765368852     0.30779440105965
22 1     7.96700863032678     4.80225639239785     1.57897421184302     0.07650078909982    -0.40699978722991     0.32381251483362
39 1     9.58011664467806     6.39429742923391     0.01564778542373     0.01197681707709    -0.16332144086960    -0.31211713769472
167 1     9.57216340007459     6.38760155772912     3.22356574484653    -0.11539434952655    -0.17980073106738    -0.40497258507345
24 1    11.17242722983731     4.77836151518724     1.60552192848593    -0.11418278627425     0.13436439809831    -0.20963707180461
41 1    12.76336905864863     6.34511714035790     0.00830395751238    -0.12728378617380     0.50783240883265    -0.10711138403939
169 1    12.75069254940749     6.33248582167491     3.22866133304722    -0.03295261386781     0.72787932343677    -0.55020192556257
26 1    14.32952559799167     4.79644278252163     1.57616595824681     0.34729227220965    -0.22552797084970     0.24305876973771
43 1    15.95592207884287     6.37869523028427     0.05024582155017    -0.15667277661051     0.09873445522413    -0.83263853400436
171 1    15.94977420156908     6.39118033164928     3.19117527128699    -0.09319686840495    -0.40235568863075     0.11139117788765
28 1    17.53604031263880     4.75319303088050     1.61815612170575    -0.05664062680571     0.54422092543860    -0.65878693138722
173 1    19.11888484951713     6.35863618901442     3.16004782159148     0.28170391315492     0.39203787881129     0.42710907799111
30 1    20.72923158955124     4.79721114593925     1.60983482040643     0.18282923098398    -0.21441065729693    -0.38551813295159
32 1    23.90432761604067     4.77144738517349     1.57943820534537     0.21957013975349     0.14963536802363     0.32444285325459
47 1    22.34199650461759     6.38026376794765     0.02265731509633    -0.06007023322071    -0.10258982573015    -0.39294605161280
175 1    22.30661853196622     6.41658183951701     3.19418811042063     0.24360774475369    -0.81379330646843    -0.05637349846348
177 1     0.01923548274861     9.55966053670323     3.18135318938892    -0.21127327938251     0.01481613302621     0.17893400927995
34 1     1.58848208133924     7.99368353954991     1.61071624032610     0.30861600490535    -0.40886543455498    -0.22597397798854
51 1     3.17166987805886     9.56391201412364     0.02388264442043     0.37212402994977    -0.12815479496042    -0.16787799079841
179 1     3.20805829229991     9.59753843250173     3.20968787460528    -0.23835841666451    -0.60000594644227    -0.29604003450220
36 1     4.79800497898735     7.99251008285618     1.61905584798885    -0.28354392645432    -0.14697146665481    -0.39252692016913
53 1     6.38199187029529     9.59624767077781     0.04585705674233    -0.34742399809537    -0.72686092499333    -0.92025615394593
181 1     6.38429479036494     9.56344683851007     3.14835033507600     0.06030187779325     0.03249085076124     0.78266412488180
38 1     8.00660286473825     7.93958423551141     1.59285200975349    -0.52811155840784     0.39636070732439     0.09988842939196
55 1     9.53603496849857     9.61584605850982     0.00209973849291     0.71331085089389    -1.06095282148675    -0.19324043412676
183 1     9.54792980304357     9.53934891054923     3.16885451956035     0.49000035088608     0.36503658114047     0.49562355196569
40 1    11.14963169812470     7.95173159621648     1.61531306814017     0.40444546220346     0.24800682427649    -0.18820993270793
185 1    12.81153697987823     9.56590144317973     3.18830373017793    -1.03291580422448    -0.03380336657143     0.14286526798584
42 1    14.35362611223117     7.98665787123167     1.62393370091986    -0.04190906962294    -0.43489580411875    -0.40897720797440
59 1    15.96081893177884     9.56169406451833     0.02288472099806    -0.34725723979263     0.08431314781429    -0.33632262412078
187 1    15.96628681687482     9.54213900300585     3.21273303881044     0.05411834903425     0.33631023007238    -0.29519337244785
44 1    17.55231040061952     7.96724869566667     1.58875638425973     0.04915961969122    -0.00162562262410     0.19586292626349
61 1    19.12124833886978     9.55794373408731     0.02293062842446     0.16199020690002     0.37527451058475    -0.33306795642317
189 1    19.16348461394397     9.60720833345941     3.22142860233071    -0.21659237174697    -0.68658302625536    -0.52555819035118
46 1    20.74825787870057     7.97161909836404     1.55175473334365    -0.38763399227782     0.17688432466012     0.71637508229996
48 1    23.92112596204227     7.97982441864859     1.59424483406795    -0.06590544987778    -0.15013221039280    -0.16463179807880
4145 1    25.48450259955824     9.57209396025877     0.00737789220893     0.24630452892185    -0.18771191778059     0.03307258717730
4273 1    25.48336788210737     9.57276655516825     3.21612342650557     0.38173994183006     0.08221597305475    -0.50622350233977
191 1    22.33060697504765     9.52908628074484     3.17801705291996    -0.32729051175395     0.81135002874089     0.03029676609778
193 1     0.00889659853520    12.72090115634790     3.16128366349280    -0.41955787035625     0.68684318051931     0.39653186246516
50 1     1.57632047162799    11.13389027557037     1.60273999427418     0.26049050470261     0.47437296573525    -0.38954872425364
66 1     1.58590798289748    14.34462280727811     1.59088440430125     0.18274227637800    -0.12603138539798     0.16817224054506
67 1     3.18101861562405    12.78107540089534     0.02167072323030    -0.03407605161311    -0.41559069029528    -0.20014509562254
195 1     3.17112878061482    12.76013087735372     3.19866202758555     0.31054997993313     0.12848680917654    -0.26864066642153
52 1     4.77206244054162    11.16879815326448     1.58681811806034     0.11344900489368     0.09305072954544     0.21457700473990
68 1     4.81959369305071    14.35746755513718     1.59089886703225    -0.51356242236411    -0.07123150342077     0.10996013296062
197 1     6.35235483846249    12.74135541652162     3.18705392106585     0.53767088744871     0.23149145282968    -0.01031782616826
54 1     7.99935899448208    11.11474595487110     1.56459051680527    -0.57998221698748     0.96859730519114     1.02686533115299
70 1     7.97581034227244    14.40593945984019     1.56653412742917     0.07533417481782    -1.11313516260426     0.57905680001123
71 1     9.57578056741750    12.75420539327969     0.03127507016607    -0.34631999990961     0.35493477629472    -0.64377094075650
199 1     9.54077312156844    12.76324197128550     3.16133211210911     0.16852144243892    -0.02820759774375     0.54116489345698
56 1    11.14436178496912    11.15530975871411     1.59930097267096     0.27425642402919    -0.15975701696845     0.18028594959631
72 1    11.14652286711272    14.34216023173716     1.56396598234309     0.17161050751613     0.26052087250012     0.65842325103123
73 1    12.73723791866368    12.73030267336534     0.01046656881905     0.42750548603647     0.32637248481490    -0.28012769627227
201 1    12.75361346882103    12.79107749010269     3.12828030447195     0.00270933097611    -0.63644363592853     1.15342872187371
58 1    14.33165235211610    11.12382400183882     1.63341242882525     0.42503307413800     0.56585580796577    -0.64890121544614
74 1    14.34826536765716    14.33231053859423     1.59122306766734    -0.08983913960997     0.30954986625729    -0.07898699044150
75 1    15.94632342636971    12.74963254700909     0.01865224768808    -0.20319690839634    -0.00607941289101    -0.39944476915488
203 1    15.97873809342090    12.76361161381574     3.17335913303143    -0.44929142207323    -0.43630795442620     0.33704687033364
60 1    17.55475418783682    11.14992170166263     1.59186885089245    -0.22986592164653     0.11473787179877     0.05935066904704
76 1    17.52546751615555    14.34151021661143     1.63505830130134     0.32687630336206     0.10343887155162    -0.62454457306348
205 1    19.16211195565911    12.77445982477860     3.19302367161246    -0.28253931484866    -0.16150498498153     0.19351808536888
62 1    20.72278414750148    11.19462230287279     1.61708094913761     0.08015588736633    -0.65797728128319    -0.29491693265924
78 1    20.71899210433791    14.30879898231514     1.58787243667955    -0.09226956417061     0.92323192653957     0.10703347196578
80 1    23.90079566556132    14.32970558226854     1.54163540468317     0.29628200555383     0.33931640396165     0.97153748062930
64 1    23.89511462432481    11.15103557932872     1.62344642181073     0.18551797180852     0.07554699375463    -0.34394466494462
4161 1    25.49251108143751    12.72767350447086     0.02314128136730     0.21917050357315     0.27283468841291    -0.26500836662753
207 1    22.35752979005585    12.78633663493180     3.15771200115073    -0.33284127505419    -0.62775028773778     0.65615178087850
209 1     0.05033335798688    15.94718904055597     3.20259903733550    -0.65480368899259    -0.05480868862171    -0.00639182338457
82 1     1.58225470699992    17.51141219224085     1.57582686871054     0.21255612447277     0.49475471034646     0.27564537104504
211 1     3.20786003625442    15.92578531167135     3.15914342042140    -0.04111092862194     0.22606292795127     0.62391565313878
84 1     4.75642371442659    17.55083882341370     1.59884112767882     0.29989699288419    -0.17905762721103    -0.14914955470453
85 1     6.40801338718619    15.95145898441264     0.00584504579743    -0.61281280653566     0.04477971540609    -0.22041857865605
213 1     6.40486874399025    15.97084316809736     3.16926636574435    -0.43054151582628    -0.41965779342881     0.29058442604472
86 1     7.94283179776849    17.51216748431113     1.61388487636769     0.66111124564871     0.95417452574116    -0.42972885505829
87 1     9.57349976010259    15.95400738354921     0.01534177168630    -0.14506783794373     0.24306997781997    -0.32826308929903
215 1     9.59624064559173    15.96371543362277     3.19895558661375    -0.29780475050896    -0.25901200489202    -0.20850623382654
88 1    11.17860381828311    17.55667352882523     1.59189287900580    -0.42121957511682    -0.01511722392650     0.08794247917329
89 1    12.71169209907616    15.94748488571595     0.01193945963064     0.76633897329952    -0.10926596486230    -0.20907585430395
217 1    12.76164140696338    15.96389777511009     3.19577432812460    -0.05172207758576    -0.37390780018979    -0.08490746150856
90 1    14.33101736757446    17.56163354017190     1.59395903037690     0.40135669346893    -0.47853631346128    -0.06575805693797
91 1    15.93764873335554    15.93653474722863     0.04134436697965    -0.23275096021015     0.18000850830318    -0.51355282861690
219 1    15.93946948218230    15.90502929581157     3.20196805953589    -0.07532654895727     0.67702749357229     0.12809963621943
92 1    17.53060841514629    17.52031004172964     1.61007259989831    -0.14828519954515     0.10586866886658    -0.22120313831430
221 1    19.12018753003439    15.96156097188029     3.21824629802159     0.27325127692022    -0.52186866934012    -0.37999849592575
94 1    20.70627048844699    17.53174224886215     1.58611958843962     0.38452101778426    -0.31154604045598     0.16063432549833
96 1    23.95067686093723    17.54196914653519     1.60524535304763    -0.47033941498792    -0.29459212850814    -0.10547800124023
4305 1    25.49399453752941    15.92951858646072     3.17442232441909     0.30118823979063     0.13392773261383     0.06430180561070
223 1    22.32385469489169    15.91787822415333     3.17070091686121    -0.12259342735456     0.29441186585882     0.20559934034727
98 1     1.59259178965066    20.72836135674253     1.59334654618822     0.11324512891014    -0.03664187051678    -0.10955040088120
227 1     3.17763323837880    19.14163141676553     3.20182996541615    -0.09297384509367    -0.23354499606372    -0.30258263893662
100 1     4.79885042033661    20.71122066328921     1.59710618754658    -0.33840525720932     0.28944414793302    -0.37017445182967
101 1     6.40534358169883    19.14697708836688     0.00212474689400    -0.17293822880980    -0.04006590945213    -0.05578713250290
229 1     6.32755059918531    19.13308663114695     3.16018941412380     0.77043578981432     0.09743985881832     0.36588667473228
102 1     7.95063564753613    20.74463008281371     1.59229766229019     0.30208138799220    -0.27664659766170    -0.01531255580110
231 1     9.53621098583675    19.17272133829397     3.17808771383379     0.41082927064770    -0.46295154378252     0.13480823288494
104 1    11.18504383361085    20.73938173328483     1.57639535387688    -0.11522522781853    -0.19955971553717     0.36893331763940
233 1    12.79910477150493    19.12749798118828     3.18683434054546    -0.88285287755823     0.25580144061167    -0.03046315036548
106 1    14.37839602717922    20.73550359205127     1.60232813578164    -0.25882340806768    -0.19153218892611    -0.17713833719625
235 1    15.92855955731782    19.13669302811920     3.19970798774764     0.44962920003569    -0.39014858709353    -0.24592440065643
108 1    17.57059320527322    20.68804476119092     1.57408788506251    -0.44492410699724     0.35655283573219     0.28944153782762
237 1    19.12628699317983    19.11988322895120     3.14448631438075     0.02570666054501     0.22853845555927     0.73795157666667
110 1    20.71829814310170    20.71890679735078     1.60699487914993     0.23700771942238     0.01396763921109    -0.09796053618632
112 1    23.92105859219187    20.70990671595787     1.58483359065223    -0.30831873702528     0.43184892054555     0.10662228320856
4321 1    25.51142596004583    19.11724599452328     3.18428091960322     0.12295481441195     0.11926166109523     0.09619402662359
111 1    22.31892760522543    19.11957955079660     0.03455482913638     0.18932883112722     0.36446985654452    -0.52863008723046
239 1    22.30224519892715    19.12839942788015     3.17078738795365     0.21501293539642    -0.20277624625383     0.20734361393421
241 1     0.01776379872839    22.34720356527686     3.15645752154287    -0.23083076014155    -0.26089286355225     0.46303778016088
114 1     1.59698361338529    23.95052039995391     1.57415852677091    -0.09882315462172    -0.61978566188138     0.13131101654532
2179 1     3.21739332418753    25.48175506054561     3.19377678446667    -0.17927378932763     0.40620533173339     0.00576938028526
2051 1     3.17747487050275    25.48803281575476     0.01978278136540     0.03539048077153     0.34875521052758    -0.46889420863564
115 1     3.22489472584486    22.31751454432601     0.00304501326833    -0.55122700386585    -0.08296814625997    -0.17417257833360
243 1     3.18221352803552    22.29953022207388     3.15791209115504     0.07034332023438     0.20908063707956     0.41111449333125
116 1     4.78473064120873    23.90817960473802     1.61452263991540     0.18649315213104     0.15045076799505    -0.40463274828850
245 1     6.33456911696499    22.33745713524110     3.23053799174516     0.73152742134485    -0.35303839450176    -0.69469143005292
118 1     8.01013825288007    23.88469235442207     1.58998775253688    -0.77772688961177     0.52408620167351    -0.04926984206973
2055 1     9.61360930979766    25.49535929230215     0.00739756639813    -0.90476342450600     0.19423231122775    -0.24136816445309
247 1     9.59795517789092    22.31252823967347     3.18640534787038    -0.47481963769752     0.14848817090485     0.12224079716408
120 1    11.13256275445244    23.89251918748108     1.56989409258062     0.77266970322129     0.28617565944659     0.29524426536950
2185 1    12.73828365797740    25.49746353727682     3.19497683539291     0.18176496711010     0.16679689936213     0.00932028167741
121 1    12.77767657662739    22.30048367846858     0.00080738375299    -0.37824947641593     0.46552003985663    -0.10416120483786
249 1    12.77076810928178    22.30863784806265     3.19699834419078    -0.31019682464709     0.23634653613544    -0.09680200044425
122 1    14.34626657950828    23.87772852567374     1.62144821781604    -0.02389364172738     0.54539014053220    -0.41321707861598
2187 1    15.92418707643306    25.50803459982010     3.20316741595814     0.26971474928787    -0.08594443035776    -0.07684305066407
123 1    15.97691611545876    22.28483278563283     0.01155318204195    -0.28919338617202     0.59881517738931     0.00131496333226
251 1    15.90927926648742    22.32391844458191     3.20484227696090     0.72733041324688    -0.00985260490472     0.00153166967181
124 1    17.55643485942217    23.90161313800632     1.64283221033028    -0.35212209833053     0.32395970304963    -0.55496061953327
125 1    19.14663362650029    22.30923547788645     0.05206460563430    -0.44771438061600    -0.02290353031624    -0.76087435144786
253 1    19.13320573009326    22.35348222650314     3.18831243035235    -0.11743330937767    -0.54541114167673     0.40235564056281
126 1    20.72135925699144    23.90571093477987     1.54027264410525     0.01031014459439     0.31291048219024     1.03326564893179
128 1    23.89415088147201    23.94546895740014     1.61012756077201     0.08924535518194    -0.37529697785168    -0.23172743181095
6145 1    25.48716601326129    25.50610700453293     0.00770161168365     0.37279480789157     0.27378686636003     0.01108225861919
4209 1    25.48952204031807    22.35532954322948     0.00774380596246     0.19751736665073    -0.37245579257220    -0.22833074473663
2191 1    22.28818413338499    25.50646066132215     3.16725675315381     0.60141229912513    -0.17928433618383     0.32962521041358
127 1    22.26381183780327    22.34826303257970     0.04103296212215     0.89845985152530    -0.60319749923617    -0.63412181272622
255 1    22.32564598703884    22.30776657776764     3.20616869671020    -0.04518100381318     0.17138255748239    -0.23424664054243
257 1     0.03529714153906     0.00743353867772     6.37991627599558    -0.48505532574685    -0.19676408869416    -0.23431325692834
130 1     1.61612004001014     1.59910494682881     4.75814708516663    -0.34148920434635    -0.19488047509683     0.27806826098111
258 1     1.61128029726807     1.60708677232410     7.93730971690323     0.07393431669570    -0.12514688162688     0.44891171141581
275 1     3.19014035001078     3.18575680852174     6.34865607627694     0.08067368385745     0.03519980348607     0.57175953464107
132 1     4.80060305424334     1.58086976500616     4.79172151847844    -0.07469838623032     0.31854354265562    -0.18667601172501
260 1     4.78198435127107     1.63982970954273     7.96528931020029     0.00972205155306    -0.62113309889138    -0.02896496744321
261 1     6.40279558832152     0.02226160620440     6.37530623500133    -0.42907398854934    -0.23277857699395     0.10155719086733
277 1     6.38982627734647     3.19892512609690     6.35897411897380     0.09127163114648     0.14119457178575     0.26854513230910
134 1     7.99269922404332     1.62251295479902     4.79467375497164    -0.30637706360853    -0.26706226679499    -0.20196474735747
262 1     7.97991040121683     1.61664832905918     7.99676095695022    -0.19912725898411    -0.11580425505337    -0.35930381545525
279 1     9.59977599197618     3.17668100930333     6.37017339439810    -0.56624806521832     0.24179320372427     0.19748473609873
136 1    11.13541295780570     1.64348201855030     4.76055099176903     0.46451860819146    -1.01792392896631     0.40664346474122
264 1    11.13251528599972     1.62211810214422     7.98194423503983     0.47955210831765    -0.70064668797300    -0.25541990396695
281 1    12.77943797964359     3.15984304039688     6.41509162550465    -0.23399520923174     0.38529105124362    -0.56600537787077
138 1    14.31857217232486     1.58576514465428     4.76765761179432     0.49681619043411     0.07937911438989     0.32981945175058
266 1    14.38339704238032     1.61844662771922     7.98366058874429    -0.55792108456936    -0.49077225522529    -0.28619942013281
283 1    15.96165242783366     3.21638689258503     6.37159449225089    -0.18063360270201    -0.49447040310473    -0.12336218263229
140 1    17.53420282873799     1.57293393945882     4.76291566712830    -0.04878943106632     0.22295209618717     0.37914133173161
268 1    17.51140506897794     1.58249653763414     7.99721080592240     0.52532766633557     0.15419708619503    -0.53865133723199
285 1    19.11413956207642     3.18819135246904     6.39386311895785     0.27195521381610    -0.07681580023410    -0.51737033074478
142 1    20.73032778853295     1.60481682232797     4.82236158955488    -0.24650949609547    -0.12984759541207    -0.55200873462266
270 1    20.74763870868117     1.57377944284334     7.96259056614613    -0.33489254496998     0.22083253777059     0.16459355504930
272 1    23.91973227557084     1.55989331267225     7.96996945285903     0.08622818334325     0.40289489496094     0.08513960071443
144 1    23.90273739252320     1.58818985149283     4.81210501973931     0.40789673784510     0.04496263258698    -0.56393481432651
4369 1    25.50427934367118     3.19739109942830     6.40145108438745     0.35311468755847    -0.18963752301891    -0.28205581686117
271 1    22.34209092199242     0.00034515284874     6.38610396154824    -0.55712054990710    -0.06213879549238     0.18969019222627
287 1    22.33998631764133     3.21408199482739     6.34977469257301    -0.37045464312156    -0.26443740050066     0.80018193978051
289 1     0.00022809508940     6.34402449830854     6.40975808267398    -0.06299604868891     0.50779299640215    -0.48819056282129
146 1     1.62197167210007     4.76605135349186     4.80063234851343    -0.48217479450242     0.15644776089251    -0.17741211832463
274 1     1.59290320274700     4.81386255669170     7.98826540302375     0.20975213617518    -0.65435352600028    -0.19512485346655
291 1     3.16789195102563     6.34638573684214     6.37529063874167     0.55512941090790     0.48600481992682    -0.08711052925197
148 1     4.79039469423517     4.78633238695826     4.78870472485861     0.13845998636473    -0.12586367200209    -0.07845090709987
276 1     4.78957361451723     4.80899115466443     7.96675048433802     0.00333892134522    -0.37675917733869     0.08049115970698
293 1     6.39106183495774     6.40556942237870     6.38802401915102    -0.19676157265602    -0.40239530910631    -0.31096279655147
150 1     8.00328920462860     4.79192989078580     4.75185587499463    -0.60515728029490    -0.05814589727645     0.35170514874111
278 1     8.00107958999352     4.80319521679948     7.96338247928228    -0.32520782048099    -0.33810790089312    -0.00823179074270
295 1     9.55555391719633     6.36830826660681     6.38068891586458     0.29211518091458     0.16154438178100     0.12382990438801
152 1    11.11833003723699     4.74976610516037     4.77267440344262     0.80566888646241     0.63334694181878     0.39594963232477
280 1    11.16313566382310     4.76634833955183     7.96975821587405     0.09512778942044     0.47665400652546    -0.05797858625952
297 1    12.78099804769863     6.39065663852043     6.36437035692463    -0.49784820667555    -0.43142150070056     0.34977300910616
154 1    14.32582882867961     4.76427938308041     4.76809680920642     0.47009076233713     0.10198688832447     0.28539094651814
282 1    14.35555837188441     4.76269146144975     7.98174231461742     0.04395250085143     0.47846189206067    -0.21821314589644
299 1    15.93764519522650     6.38681240524779     6.37582018835816     0.13648117939644    -0.17092512396262     0.02292862251897
156 1    17.53538346804885     4.78019007816858     4.77166602806290    -0.10204213363644    -0.16809145054343     0.10786984220865
284 1    17.53906070762621     4.81271395680547     7.97448245294611    -0.13150616968837    -0.34283822260014     0.06419858606717
301 1    19.11483854590013     6.37682275688103     6.37314082620320     0.37546264244932    -0.03892534054181    -0.02218342678621
158 1    20.71701589253081     4.78229087711207     4.78801287172498    -0.00180150842326     0.00886668027034    -0.05037045937716
286 1    20.71409959256039     4.79402932949036     7.97637331432559     0.35766868807221    -0.17545987897192    -0.03730491468338
288 1    23.96739902670204     4.76964159089913     7.97505046156028    -0.90272634776878     0.12787094720100     0.06595102127053
160 1    23.88346224678588     4.77805620562242     4.79778870549827     0.54246279835005     0.38534032877484    -0.33473513502302
303 1    22.33345763723705     6.39991444461046     6.39120029753943    -0.18570355109833    -0.47586112936765     0.05455257510608
162 1     1.59542834823051     7.95217633008894     4.76748763560919     0.03712543246905     0.34588686780226     0.26631339803092
290 1     1.63231444640578     7.93616054328044     7.93751254917789    -0.48832983052793     0.60676895161336     0.34301431907561
307 1     3.19095137696516     9.56735142025382     6.33747024292399    -0.19940798876362    -0.23932622601913     0.55513620797731
164 1     4.80840021877400     7.95242302462626     4.77692448789809    -0.43132095537729     0.23629304182034     0.05584198983964
292 1     4.80828631747711     7.97010593542525     7.96109509848645    -0.39223574740316     0.17839784538544     0.14357539467854
309 1     6.34436290448674     9.60225662794988     6.37076572615238     0.60238384012927    -0.53328730501848     0.19137399609810
166 1     7.94161221774516     7.98768738864888     4.79221524643288     0.44981194485400    -0.10626190790863    -0.24932366376971
294 1     7.96294806330275     7.97724840784972     7.94487996626495     0.25882006841976     0.26432067031316     0.40350102510898
311 1     9.57064933292623     9.57819340313129     6.37413578338080     0.00260547092024    -0.16997163127071     0.07150823521119