LAMMPS (4 May 2022)
  using 1 OpenMP thread(s) per MPI task
variable                    T equal 300
variable                    R equal 984523

units		                metal
dimension                   3
boundary	                p p p
atom_style	                atomic

lattice                     bcc 3.189
Lattice spacing in x,y,z = 3.189 3.189 3.189
region                      box block 0 8 0 8 0 8
create_box                  1 box
Created orthogonal box = (0 0 0) to (25.512 25.512 25.512)
  2 by 2 by 4 MPI processor grid
create_atoms                1 box
Created 1024 atoms
  using lattice units in orthogonal box = (0 0 0) to (25.512 25.512 25.512)
  create_atoms CPU = 0.004 seconds

pair_style	                tensormd
pair_coeff	                * * ../../../W_k32_snapshot.npz W interp 0.001 1
Use interpolation: dr = 0.0010, algo = batch

mass                        1 183.8

neighbor                    1.0 bin
neigh_modify                every 1 delay 0 check yes

thermo                      1
thermo_style                custom step cpu temp ke pe etotal press vol pxx pyy pzz

velocity                    all create $T $R dist gaussian
velocity                    all create 300 $R dist gaussian
velocity                    all create 300 984523 dist gaussian
fix                         1 all nvt temp $T $T 0.1
fix                         1 all nvt temp 300 $T 0.1
fix                         1 all nvt temp 300 300 0.1
dump                        1 all custom 1 dump.fnn id type x y z fx fy fz

run                         1000
Neighbor list info ...
  update every 1 steps, delay 0 steps, check yes
  max neighbors/atom: 2000, page size: 100000
  master list distance cutoff = 7
  ghost atom cutoff = 7
  binsize = 3.5, bins = 8 8 8
  1 neighbor lists, perpetual/occasional/extra = 1 0 0
  (1) pair tensormd, perpetual
      attributes: full, newton on
      pair build: full/bin/atomonly
      stencil: full/bin/3d
      bin: standard
Per MPI rank memory allocation (min/avg/max) = 17.99 | 17.99 | 17.99 Mbytes
   Step          CPU            Temp          KinEng         PotEng         TotEng         Press          Volume          Pxx            Pyy            Pzz      
         0   0              300            39.669939     -13091.707     -13052.037      1554.7871      16604.795      1711.1107      1325.4394      1627.8112    
         1   0.004178905    299.73964      39.635511     -13091.672     -13052.037      1566.1526      16604.795      1722.5762      1336.8187      1639.063     
         2   0.008261623    298.95966      39.532371     -13091.569     -13052.037      1602.3999      16604.795      1759.1183      1373.1097      1674.9717    
         3   0.012323662    297.66327      39.360945     -13091.397     -13052.036      1662.6168      16604.795      1819.8242      1433.3953      1734.6308    
         4   0.016357928    295.85576      39.121933     -13091.158     -13052.036      1746.4875      16604.795      1904.4113      1517.3509      1817.7002    
         5   0.020512577    293.5445       38.816308     -13090.852     -13052.036      1853.6478      16604.795      2012.4997      1624.6282      1923.8155    
         6   0.024380559    290.73885      38.445308     -13090.481     -13052.036      1983.5419      16604.795      2143.5271      1754.6551      2052.4437    
         7   0.028292583    287.45017      38.010435     -13090.045     -13052.035      2135.5761      16604.795      2296.9036      1906.8616      2202.9631    
         8   0.032196388    283.69174      37.513447     -13089.547     -13052.034      2308.9942      16604.795      2471.8612      2080.4976      2374.6238    
         9   0.036114624    279.47874      36.956348     -13088.989     -13052.032      2503.0236      16604.795      2667.6531      2274.7641      2566.6535    
        10   0.039938345    274.82815      36.341386     -13088.372     -13052.03       2716.6968      16604.795      2883.2922      2488.7202      2778.078     
        11   0.043525206    269.7587       35.671037     -13087.699     -13052.028      2949.0912      16604.795      3117.8353      2721.447       3007.9913    
        12   0.047125678    264.29079      34.947998     -13086.973     -13052.025      3199.0994      16604.795      3370.1649      2971.8563      3255.277     
        13   0.050721504    258.44638      34.175174     -13086.196     -13052.021      3465.5859      16604.795      3639.1628      3238.7841      3518.8106    
        14   0.054336156    252.24894      33.355666     -13085.371     -13052.016      3747.343       16604.795      3923.5854      3521.0606      3797.383     
        15   0.057938413    245.72328      32.492758     -13084.503     -13052.01       4043.0917      16604.795      4222.1445      3817.4072      4089.7236    
        16   0.061457013    238.8955       31.589899     -13083.593     -13052.003      4351.5272      16604.795      4533.5339      4126.504       4394.5438    
        17   0.064936335    231.79284      30.650692     -13082.646     -13051.995      4671.318       16604.795      4856.3878      4447.0563      4710.5098    
        18   0.068431434    224.44357      29.678876     -13081.665     -13051.986      5001.0407      16604.795      5189.2839      4777.6225      5036.2156    
        19   0.071937076    216.87687      28.678307     -13080.654     -13051.976      5339.269       16604.795      5530.7666      5116.7914      5370.2491    
        20   0.075440849    209.12267      27.652945     -13079.617     -13051.964      5684.5888      16604.795      5879.4019      5463.1764      5711.1881    
        21   0.078962352    201.21155      26.606832     -13078.558     -13051.952      6035.4953      16604.795      6233.68        5815.2107      6057.5952    
        22   0.082475187    193.17457      25.544077     -13077.482     -13051.937      6390.5714      16604.795      6592.1542      6171.547       6408.0129    
        23   0.086013073    185.04315      24.468835     -13076.391     -13051.922      6748.322       16604.795      6953.2955      6530.6613      6761.0091    
        24   0.089524837    176.84894      23.385289     -13075.291     -13051.906      7107.2803      16604.795      7315.6705      6891.0969      7115.0735    
        25   0.093049659    168.62363      22.29763      -13074.186     -13051.888      7466.0281      16604.795      7677.78        7251.4413      7468.863     
        26   0.096582273    160.39886      21.210043     -13073.079     -13051.869      7823.1037      16604.795      8038.1875      7610.1979      7820.9257    
        27   0.10011618     152.20605      20.126682     -13071.976     -13051.85       8177.0938      16604.795      8395.4097      7966.0116      8169.8601    
        28   0.10366047     144.07628      19.051657     -13070.881     -13051.829      8526.663       16604.795      8748.1571      8317.4776      8514.3543    
        29   0.10717741     136.04016      17.989016     -13069.797     -13051.808      8870.4214      16604.795      9094.9901      8663.2469      8853.0272    
        30   0.11072363     128.12768      16.942724     -13068.728     -13051.786      9207.0942      16604.795      9434.5909      9002.0403      9184.6514    
        31   0.11426307     120.3681       15.916651     -13067.68      -13051.763      9535.402       16604.795      9765.6971      9332.563       9507.946     
        32   0.11782283     112.78986      14.914556     -13066.655     -13051.74       9854.133       16604.795      10087.052      9653.5997      9821.7471    
        33   0.12147457     105.42042      13.940072     -13065.657     -13051.717      10162.119      16604.795      10397.485      9963.9774      10124.893    
        34   0.12501396     98.2862        12.996692     -13064.69      -13051.694      10458.259      16604.795      10695.903      10262.569      10416.306    
        35   0.12853208     91.412479      12.087758     -13063.758     -13051.671      10741.525      16604.795      10981.23       10548.359      10694.987    
        36   0.13212191     84.823307      11.216451     -13062.864     -13051.648      11010.898      16604.795      11252.43       10820.317      10959.945    
        37   0.13570496     78.541428      10.385779     -13062.011     -13051.626      11265.474      16604.795      11508.609      11077.537      11210.278    
        38   0.13925683     72.588219      9.5985673     -13061.202     -13051.604      11504.413      16604.795      11748.909      11319.15       11445.179    
        39   0.14281433     66.983626      8.8574545     -13060.44      -13051.583      11726.947      16604.795      11972.538      11544.391      11663.912    
        40   0.14638043     61.746109      8.1648811     -13059.727     -13051.563      11932.364      16604.795      12178.77       11752.539      11865.783    
        41   0.14995338     56.892586      7.5230846     -13059.066     -13051.543      12120.008      16604.795      12366.968      11942.941      12050.114    
        42   0.15351662     52.438389      6.9340922     -13058.459     -13051.525      12289.341      16604.795      12536.541      12115.024      12216.459    
        43   0.15707315     48.397212      6.3997147     -13057.907     -13051.508      12439.949      16604.795      12687.087      12268.391      12364.37     
        44   0.16066591     44.781058      5.9215394     -13057.413     -13051.491      12571.346      16604.795      12818.144      12402.502      12493.391    
        45   0.16420643     41.60019       5.5009233     -13056.977     -13051.476      12683.314      16604.795      12929.447      12517.177      12603.318    
        46   0.16778173     38.863079      5.1389865     -13056.601     -13051.462      12775.584      16604.795      13020.752      12612.117      12693.884    
        47   0.17260435     36.576351      4.8366053     -13056.285     -13051.448      12848.005      16604.795      13091.897      12687.158      12764.961    
        48   0.17614137     34.744741      4.5944058     -13056.03      -13051.435      12900.561      16604.795      13142.845      12742.295      12816.543    
        49   0.17968882     33.371052      4.4127586     -13055.836     -13051.423      12933.223      16604.795      13173.584      12777.469      12848.615    
        50   0.18447299     32.456122      4.2917745     -13055.703     -13051.411      12946.129      16604.795      13184.248      12792.837      12861.3      
        51   0.18898132     31.998809      4.2313026     -13055.631     -13051.4        12939.472      16604.795      13175.052      12788.553      12854.811    
        52   0.19378431     31.995988      4.2309296     -13055.62      -13051.389      12913.514      16604.795      13146.213      12764.9        12829.428    
        53   0.19729835     32.442567      4.2899821     -13055.668     -13051.378      12868.595      16604.795      13098.111      12722.205      12785.468    
        54   0.20206584     33.331519      4.4075311     -13055.775     -13051.367      12805.131      16604.795      13031.171      12660.89       12723.332    
        55   0.20546758     34.653941      4.582399      -13055.938     -13051.356      12723.606      16604.795      12945.884      12581.401      12643.534    
        56   0.20874186     36.399111      4.8131683     -13056.157     -13051.344      12624.615      16604.795      12842.826      12484.38       12546.639    
        57   0.21355478     38.554576      5.0981922     -13056.43      -13051.332      12508.785      16604.795      12722.649      12370.401      12433.303    
        58   0.21816695     41.106246      5.4356075     -13056.755     -13051.319      12376.824      16604.795      12586.076      12240.216      12304.179    
        59   0.22309811     44.038488      5.823347      -13057.129     -13051.306      12229.482      16604.795      12433.865      12094.548      12160.034    
        60   0.22636176     47.33424       6.2591546     -13057.551     -13051.292      12067.566      16604.795      12266.828      11934.214      12001.657    
        61   0.22998772     50.975121      6.7405997     -13058.017     -13051.276      11891.947      16604.795      12085.844      11760.085      11829.913    
        62   0.23443875     54.941545      7.2650923     -13058.525     -13051.26       11703.561      16604.795      11891.889      11573.096      11645.698    
        63   0.23772103     59.212839      7.8298989     -13059.072     -13051.242      11503.364      16604.795      11685.928      11374.209      11449.957    
        64   0.24097154     63.767361      8.4321576     -13059.655     -13051.223      11292.394      16604.795      11468.989      11164.447      11243.745    
        65   0.24422287     68.582615      9.0688937     -13060.271     -13051.202      11071.668      16604.795      11242.134      10944.835      11028.034    
        66   0.24780089     73.635372      9.7370357     -13060.916     -13051.179      10842.26       16604.795      11006.433      10716.477      10803.871    
        67   0.25210697     78.901788      10.43343      -13061.589     -13051.155      10605.279      16604.795      10763.036      10480.439      10572.362    
        68   0.25534847     84.357518      11.154859     -13062.284     -13051.129      10361.872      16604.795      10513.116      10237.894      10334.606    
        69   0.25858746     89.977834      11.89805      -13062.999     -13051.101      10113.125      16604.795      10257.749      9989.9315      10091.694    
        70   0.26181298     95.737738      12.659701     -13063.731     -13051.071      9860.2686      16604.795      9998.2055      9737.7831      9844.8171    
        71   0.26508732     101.61208      13.436484     -13064.476     -13051.039      9604.4016      16604.795      9735.6073      9482.5334      9595.0642    
        72   0.26836487     107.57568      14.225068     -13065.23      -13051.005      9346.7117      16604.795      9471.1504      9225.3775      9343.6071    
        73   0.271635       113.6034       15.022133     -13065.991     -13050.969      9088.3602      16604.795      9206.042       8967.4956      9091.5429    
        74   0.27490397     119.67031      15.82438      -13066.755     -13050.93       8830.4703      16604.795      8941.4099      8709.9956      8840.0053    
        75   0.27816272     125.75177      16.62855      -13067.518     -13050.89       8574.199       16604.795      8678.4561      8454.0084      8590.1326    
        76   0.28137791     131.82352      17.431437     -13068.278     -13050.847      8320.6501      16604.795      8418.2747      8200.6643      8343.0113    
        77   0.28459899     137.86182      18.2299       -13069.032     -13050.802      8070.8858      16604.795      8161.9658      7951.0384      8099.6531    
        78   0.28782569     143.8435       19.020877     -13069.775     -13050.754      7826.0158      16604.795      7910.6767      7706.2103      7861.1605    
        79   0.29103843     149.74612      19.801398     -13070.506     -13050.705      7587.0188      16604.795      7665.3886      7467.1766      7628.4914    
        80   0.29429222     155.54801      20.5686       -13071.222     -13050.654      7354.8898      16604.795      7427.143       7234.9067      7402.6196    
        81   0.29751496     161.22836      21.31973      -13071.92      -13050.6        7130.5634      16604.795      7196.8472      7010.3497      7184.4932    
        82   0.30073244     166.76734      22.052167     -13072.597     -13050.545      6914.9261      16604.795      6975.4667      6794.4073      6974.9042    
        83   0.30392204     172.14614      22.763422     -13073.252     -13050.488      6708.7815      16604.795      6763.8141      6587.8242      6774.7062    
        84   0.30714785     177.34704      23.451154     -13073.881     -13050.43       6512.9542      16604.795      6562.7022      6391.4805      6584.68      
        85   0.31035957     182.35349      24.113173     -13074.483     -13050.37       6328.1183      16604.795      6372.8338      6206.0321      6405.4889    
        86   0.31376349     187.15016      24.747451     -13075.056     -13050.308      6154.9438      16604.795      6194.9414      6032.1315      6237.7586    
        87   0.31699842     191.72297      25.352128     -13075.597     -13050.245      5994.0378      16604.795      6029.5968      5870.3665      6082.1502    
        88   0.32020943     196.05914      25.925513     -13076.107     -13050.181      5845.8662      16604.795      5877.3029      5721.2356      5939.0602    
        89   0.32437341     200.14722      26.466093     -13076.582     -13050.116      5710.8972      16604.795      5738.5374      5585.2023      5808.9519    
        90   0.32813472     203.97714      26.972535     -13077.023     -13050.05       5589.5491      16604.795      5613.7569      5462.66        5692.2305    
        91   0.33138348     207.54018      27.443687     -13077.427     -13049.984      5482.0658      16604.795      5503.1803      5353.8634      5589.1538    
        92   0.33466838     210.82902      27.87858      -13077.795     -13049.916      5388.6761      16604.795      5407.0737      5259.0277      5499.9271    
        93   0.33788028     213.83771      28.276429     -13078.125     -13049.848      5309.5736      16604.795      5325.6399      5178.361       5424.7198    
        94   0.34115071     216.5617       28.636632     -13078.416     -13049.78       5244.8399      16604.795      5258.9776      5111.916       5363.6261    
        95   0.34441594     218.99783      28.958768     -13078.67      -13049.711      5194.4824      16604.795      5207.047       5059.7521      5316.6481    
        96   0.34769635     221.14425      29.242597     -13078.884     -13049.642      5158.4298      16604.795      5169.8735      5021.7212      5283.6945    
        97   0.35086767     223.00051      29.488055     -13079.061     -13049.572      5136.557       16604.795      5147.2496      4997.7808      5264.6405    
        98   0.35407198     224.56742      29.695252     -13079.198     -13049.503      5128.7228      16604.795      5139.1095      4987.7302      5259.3287    
        99   0.35724238     225.84709      29.864467     -13079.298     -13049.434      5134.632       16604.795      5145.1205      4991.3002      5267.4753    
       100   0.36049944     226.84286      29.996141     -13079.361     -13049.364      5153.9516      16604.795      5164.9292      5008.1804      5288.7452    
       101   0.36364134     227.55929      30.090876     -13079.386     -13049.295      5186.3607      16604.795      5198.2523      5038.0109      5322.819     
       102   0.36689939     228.00206      30.149425     -13079.376     -13049.226      5231.3992      16604.795      5244.6221      5080.35        5369.2255    
       103   0.37018378     228.17796      30.172686     -13079.33      -13049.157      5288.5917      16604.795      5303.5334      5134.7444      5427.4972    
       104   0.37344699     228.09485      30.161695     -13079.251     -13049.089      5357.4362      16604.795      5374.4987      5200.6875      5497.1224    
       105   0.3766448      227.76153      30.11762      -13079.138     -13049.021      5437.3362      16604.795      5456.9122      5277.5923      5577.5041    
       106   0.37989605     227.18776      30.041748     -13078.995     -13048.953      5527.6845      16604.795      5550.131       5364.8631      5668.0593    
       107   0.38312357     226.38413      29.935482     -13078.821     -13048.886      5627.8623      16604.795      5653.5633      5461.8787      5768.1449    
       108   0.38640993     225.36204      29.800327     -13078.619     -13048.819      5737.1758      16604.795      5766.4728      5567.9748      5877.0799    
       109   0.39021475     224.13358      29.637885     -13078.39      -13048.752      5854.9087      16604.795      5888.1359      5682.4133      5994.177     
       110   0.39374124     222.71151      29.44984      -13078.136     -13048.686      5980.3656      16604.795      6017.8315      5804.5574      6118.7078    
       111   0.39707054     221.10913      29.237952     -13077.858     -13048.62       6112.7779      16604.795      6154.7905      5933.6122      6249.9309    
       112   0.40044402     219.34024      29.004047     -13077.559     -13048.555      6251.4254      16604.795      6298.2668      6068.8819      6387.1277    
       113   0.40394649     217.41906      28.750002     -13077.24      -13048.49       6395.4753      16604.795      6447.4026      6209.5597      6529.4635    
       114   0.4073719      215.36009      28.477739     -13076.903     -13048.426      6544.2082      16604.795      6601.4746      6354.9169      6676.233     
       115   0.41075224     213.17814      28.189213     -13076.551     -13048.362      6696.835       16604.795      6759.6341      6504.209       6826.662     
       116   0.41407995     210.88814      27.886399     -13076.185     -13048.298      6852.54        16604.795      6921.084       6656.5975      6979.9385    
       117   0.41740723     208.50512      27.571284     -13075.807     -13048.236      7010.6167      16604.795      7085.0598      6811.4286      7135.3616    
       118   0.42091977     206.04411      27.245857     -13075.419     -13048.173      7170.2797      16604.795      7250.7708      6967.8861      7292.1821    
       119   0.42433319     203.52007      26.912095     -13075.023     -13048.111      7330.7582      16604.795      7417.4309      7125.2641      7449.5797    
       120   0.42797181     200.94781      26.571957     -13074.621     -13048.049      7491.3648      16604.795      7584.2856      7282.8667      7606.9419    
       121   0.43136323     198.3419       26.22737      -13074.215     -13047.988      7651.3552      16604.795      7750.5729      7439.9675      7763.5254    
       122   0.4347718      195.71662      25.880221     -13073.807     -13047.927      7810.0668      16604.795      7915.6244      7595.9172      7918.6589    
       123   0.43815622     193.08589      25.532351     -13073.399     -13047.867      7966.8179      16604.795      8078.7219      7750.0411      8071.6908    
       124   0.44256944     190.46317      25.18554      -13072.992     -13047.807      8121.0051      16604.795      8239.238       7901.7606      8222.0169    
       125   0.44626501     187.86142      24.841504     -13072.588     -13047.747      8272.0098      16604.795      8396.5057      8050.483       8369.0407    
       126   0.44947932     185.29307      24.501883     -13072.189     -13047.687      8419.2956      16604.795      8549.9966      8195.6386      8512.2516    
       127   0.45269153     182.76991      24.168236     -13071.796     -13047.628      8562.2938      16604.795      8699.0575      8336.7406      8651.0833    
       128   0.45598171     180.30305      23.842036     -13071.411     -13047.569      8700.5567      16604.795      8843.2565      8473.3155      8785.098     
       129   0.45921095     177.90291      23.524659     -13071.036     -13047.511      8833.6071      16604.795      8982.0925      8604.8745      8913.8544    
       130   0.46238456     175.57916      23.217381     -13070.67      -13047.453      8961.037       16604.795      9115.1112      8731.0612      9036.9386    
       131   0.46558203     173.34066      22.921378     -13070.316     -13047.395      9082.5212      16604.795      9241.9522      8851.5434      9154.0679    
       132   0.46876025     171.19546      22.637711     -13069.975     -13047.337      9197.6987      16604.795      9362.2397      8965.977       9264.8793    
       133   0.47196594     169.15076      22.367334     -13069.647     -13047.279      9306.3329      16604.795      9475.7152      9074.1419      9369.1415    
       134   0.47513568     167.2129       22.111085     -13069.333     -13047.222      9408.1387      16604.795      9582.0808      9175.7331      9466.6024    
       135   0.47829908     165.38734      21.869685     -13069.035     -13047.165      9502.9748      16604.795      9681.1481      9270.6312      9557.1453    
       136   0.48179123     163.67864      21.643738     -13068.752     -13047.108      9590.7115      16604.795      9772.7721      9358.7285      9640.6339    
       137   0.48524195     162.09047      21.43373      -13068.485     -13047.051      9671.2278      16604.795      9856.8119      9439.8888      9716.9826    
       138   0.4886812      160.62562      21.240028     -13068.234     -13046.994      9744.4994      16604.795      9933.2371      9514.106       9786.1553    
       139   0.49208255     159.28599      21.062885     -13068         -13046.937      9810.504       16604.795      10001.992      9581.3455      9848.1744    
       140   0.49548336     158.07263      20.902438     -13067.783     -13046.881      9869.2843      16604.795      10063.095      9641.6711      9903.0868    
       141   0.49892604     156.98571      20.758711     -13067.583     -13046.824      9920.9607      16604.795      10116.681      9695.1802      9951.0206    
       142   0.50209639     156.02459      20.63162      -13067.399     -13046.767      9965.5982      16604.795      10162.779      9741.9721      9992.0437    
       143   0.5052619      155.18785      20.520975     -13067.231     -13046.71       10003.398      16604.795      10201.576      9782.2352      10026.383    
       144   0.50844203     154.47327      20.426484     -13067.08      -13046.654      10034.569      16604.795      10233.27       9816.1689      10054.268    
       145   0.51160309     153.87793      20.347761     -13066.945     -13046.597      10059.333      16604.795      10258.083      9843.9963      10075.921    
       146   0.51478528     153.39823      20.284328     -13066.824     -13046.54       10077.993      16604.795      10276.321      9866.0201      10091.638    
       147   0.51797316     153.02991      20.235623     -13066.719     -13046.483      10090.816      16604.795      10288.224      9882.5052      10101.719    
       148   0.52116428     152.76813      20.201008     -13066.627     -13046.426      10098.137      16604.795      10294.136      9893.7907      10106.483    
       149   0.52434192     152.60752      20.179769     -13066.548     -13046.368      10100.324      16604.795      10294.419      9900.2057      10106.346    
       150   0.52751408     152.54222      20.171135     -13066.482     -13046.311      10097.76       16604.795      10289.464      9902.1638      10101.652    
       151   0.53069638     152.56595      20.174272     -13066.427     -13046.253      10090.863      16604.795      10279.663      9900.0681      10092.859    
       152   0.5339146      152.67205      20.188303     -13066.384     -13046.195      10080.034      16604.795      10265.456      9894.3161      10080.328    
       153   0.53709165     152.85358      20.212307     -13066.349     -13046.137      10065.718      16604.795      10247.256      9885.3324      10064.565    
       154   0.54028308     153.10334      20.245334     -13066.324     -13046.079      10048.343      16604.795      10225.524      9873.555       10045.95     
       155   0.54346163     153.41396      20.286407     -13066.307     -13046.02       10028.353      16604.795      10200.714      9859.399       10024.945    
       156   0.54667473     153.77793      20.334537     -13066.296     -13045.961      10006.259      16604.795      10173.317      9843.384       10002.077    
       157   0.54987785     154.18771      20.388723     -13066.291     -13045.902      9982.4606      16604.795      10143.778      9825.8695      9977.7347    
       158   0.55306642     154.63576      20.44797      -13066.291     -13045.843      9957.4637      16604.795      10112.596      9807.368       9952.4269    
       159   0.55625054     155.1146       20.511288     -13066.294     -13045.783      9931.666       16604.795      10080.168      9788.2929      9926.5373    
       160   0.55944591     155.61688      20.577706     -13066.301     -13045.723      9905.5515      16604.795      10047.033      9769.0689      9900.5526    
       161   0.56262648     156.13543      20.646277     -13066.309     -13045.663      9879.5397      16604.795      10013.588      9750.1278      9874.9027    
       162   0.56584243     156.66335      20.716084     -13066.319     -13045.603      9854.0418      16604.795      9980.2965      9731.8503      9849.9784    
       163   0.5690441      157.19398      20.786252     -13066.328     -13045.542      9829.4261      16604.795      9947.5134      9714.6208      9826.1441    
       164   0.57225433     157.72106      20.855949     -13066.337     -13045.481      9806.1355      16604.795      9915.7119      9698.8383      9803.8564    
       165   0.57545585     158.23866      20.924393     -13066.344     -13045.42       9784.4647      16604.795      9885.2245      9684.8076      9783.3619    
       166   0.57869095     158.74134      20.990863     -13066.349     -13045.358      9764.7933      16604.795      9856.4362      9672.8422      9765.1015    
       167   0.58192229     159.22408      21.054698     -13066.351     -13045.297      9747.3856      16604.795      9829.6343      9663.2425      9749.2801    
       168   0.58514204     159.6824       21.115304     -13066.35      -13045.235      9732.4995      16604.795      9805.1053      9656.2338      9736.1594    
       169   0.58837057     160.11236      21.172158     -13066.345     -13045.173      9720.3858      16604.795      9783.1421      9652.0249      9725.9904    
       170   0.59159955     160.51054      21.224811     -13066.335     -13045.11       9711.2801      16604.795      9763.9574      9650.8838      9718.9993    
       171   0.59485327     160.87416      21.272893     -13066.321     -13045.048      9705.3242      16604.795      9747.7874      9652.8804      9715.3047    
       172   0.59810983     161.20101      21.316113     -13066.301     -13044.985      9702.6689      16604.795      9734.7528      9658.186       9715.068     
       173   0.60136027     161.4895       21.354261     -13066.277     -13044.923      9703.4048      16604.795      9725.0251      9666.8305      9718.3588    
       174   0.6046065      161.73866      21.38721      -13066.247     -13044.86       9707.5938      16604.795      9718.6529      9678.8881      9725.2404    
       175   0.60786192     161.94817      21.414914     -13066.212     -13044.797      9715.2623      16604.795      9715.7047      9694.361       9735.7212    
       176   0.61112389     162.11831      21.437412     -13066.171     -13044.734      9726.3972      16604.795      9716.2288      9713.2103      9749.7526    
       177   0.61439042     162.24998      21.454823     -13066.125     -13044.67       9740.9812      16604.795      9720.207       9735.3836      9767.3528    
       178   0.61765458     162.3447       21.467348     -13066.074     -13044.607      9758.9125      16604.795      9727.5777      9760.7702      9788.3897    
       179   0.62100328     162.40457      21.475264     -13066.019     -13044.544      9780.0571      16604.795      9738.2272      9789.231       9812.7132    
       180   0.62433419     162.43225      21.478925     -13065.959     -13044.48       9804.3119      16604.795      9752.1239      9820.6162      9840.1955    
       181   0.62780103     162.43099      21.478758     -13065.896     -13044.417      9831.447       16604.795      9769.0425      9854.691       9870.6073    
       182   0.63128811     162.40451      21.475257     -13065.829     -13044.353      9861.3062      16604.795      9788.8486      9891.2782      9903.7919    
       183   0.63469269     162.35705      21.468981     -13065.759     -13044.29       9893.5872      16604.795      9811.2996      9930.0563      9939.4056    
       184   0.63803834     162.29329      21.46055      -13065.687     -13044.226      9928.069       16604.795      9836.1895      9970.7793      9977.2381    
       185   0.64149701     162.21833      21.450638     -13065.613     -13044.163      9964.4664      16604.795      9863.3002      10013.128      10016.971    
       186   0.64495542     162.13764      21.439967     -13065.539     -13044.099      10002.464      16604.795      9892.2879      10056.796      10058.307    
       187   0.64823239     162.05701      21.429305     -13065.464     -13044.035      10041.727      16604.795      9922.9136      10101.409      10100.859    
       188   0.65152866     161.98252      21.419455     -13065.391     -13043.971      10081.912      16604.795      9954.7947      10146.649      10144.292    
       189   0.65479773     161.92048      21.411252     -13065.319     -13043.908      10122.659      16604.795      9987.6792      10192.082      10188.215    
       190   0.65807605     161.87738      21.405552     -13065.249     -13043.844      10163.635      16604.795      10021.199      10237.39       10232.315    
       191   0.66152462     161.85982      21.403231     -13065.183     -13043.78       10204.435      16604.795      10055.015      10282.141      10276.148    
       192   0.66508934     161.87451      21.405173     -13065.121     -13043.716      10244.663      16604.795      10088.716      10325.948      10319.325    
       193   0.66858902     161.92814      21.412264     -13065.064     -13043.652      10283.953      16604.795      10122.009      10368.409      10361.442    
       194   0.67196722     162.02738      21.425387     -13065.013     -13043.588      10321.962      16604.795      10154.553      10409.171      10402.162    
       195   0.67529578     162.1788       21.44541      -13064.969     -13043.523      10358.268      16604.795      10185.929      10447.815      10441.059    
       196   0.67862278     162.38882      21.473182     -13064.932     -13043.459      10392.518      16604.795      10215.821      10483.967      10477.766    
       197   0.68191732     162.66366      21.509525     -13064.904     -13043.394      10424.357      16604.795      10243.865      10517.283      10511.923    
       198   0.68524003     163.00927      21.555226     -13064.885     -13043.329      10453.429      16604.795      10269.751      10547.381      10543.154    
       199   0.68856486     163.43129      21.611031     -13064.875     -13043.264      10479.426      16604.795      10293.142      10573.964      10571.171    
       200   0.69185404     163.93499      21.677636     -13064.877     -13043.199      10502.014      16604.795      10313.756      10596.663      10595.624    
       201   0.69520874     164.52522      21.755684     -13064.889     -13043.134      10520.903      16604.795      10331.266      10615.227      10616.216    
       202   0.69868374     165.20636      21.845754     -13064.914     -13043.068      10535.841      16604.795      10345.444      10629.398      10632.682    
       203   0.70217471     165.98231      21.94836      -13064.95      -13043.002      10546.56       16604.795      10356.01       10638.895      10644.774    
       204   0.70554804     166.85636      22.063939     -13064.999     -13042.935      10552.855      16604.795      10362.777      10643.525      10652.263    
       205   0.70899237     167.83126      22.192853     -13065.061     -13042.868      10554.505      16604.795      10365.497      10643.051      10654.968    
       206   0.71233961     168.90911      22.33538      -13065.136     -13042.801      10551.399      16604.795      10364.056      10637.408      10652.733    
       207   0.71564872     170.09134      22.49171      -13065.225     -13042.733      10543.38       16604.795      10358.293      10626.403      10645.444    
       208   0.71895112     171.37871      22.661943     -13065.327     -13042.665      10530.368      16604.795      10348.083      10610.017      10633.003    
       209   0.72220763     172.77125      22.846083     -13065.443     -13042.597      10512.265      16604.795      10333.367      10588.117      10615.309    
       210   0.7254714      174.26829      23.044041     -13065.571     -13042.527      10489.068      16604.795      10314.053      10560.755      10592.394    
       211   0.72880206     175.86839      23.255627     -13065.713     -13042.458      10460.782      16604.795      10290.18       10527.935      10564.231    
       212   0.73222593     177.56937      23.480553     -13065.868     -13042.387      10427.46       16604.795      10261.761      10489.712      10530.906    
       213   0.73578667     179.3683       23.718431     -13066.035     -13042.316      10389.162      16604.795      10228.817      10446.189      10492.48     
       214   0.73933293     181.26149      23.968774     -13066.214     -13042.245      10346.018      16604.795      10191.474      10397.498      10449.081    
       215   0.74285385     183.24452      24.230996     -13066.404     -13042.173      10298.175      16604.795      10149.823      10343.828      10400.874    
       216   0.74700732     185.31223      24.504416     -13066.604     -13042.1        10245.858      16604.795      10104.085      10285.407      10348.081    
       217   0.75131935     187.45875      24.788257     -13066.815     -13042.026      10189.205      16604.795      10054.34       10222.408      10290.865    
       218   0.75516829     189.67751      25.08165      -13067.034     -13041.952      10128.527      16604.795      10000.871      10155.187      10229.523    
       219   0.75843117     191.96129      25.383642     -13067.261     -13041.878      10064.103      16604.795      9943.9348      10084.023      10164.351    
       220   0.76173909     194.30225      25.693195     -13067.495     -13041.802      9996.2679      16604.795      9883.8303      10009.272      10095.701    
       221   0.76498677     196.69196      26.009193     -13067.735     -13041.726      9925.3456      16604.795      9820.8518      9931.3153      10023.87     
       222   0.76817064     199.12141      26.330447     -13067.98      -13041.649      9851.7386      16604.795      9755.3394      9850.5748      9949.3016    
       223   0.77135254     201.58114      26.655705     -13068.227     -13041.572      9775.8293      16604.795      9687.6499      9767.4594      9872.3787    
       224   0.77456348     204.06122      26.983653     -13068.477     -13041.494      9698.0469      16604.795      9618.1785      9682.4345      9793.5278    
       225   0.7778112      206.55132      27.312927     -13068.728     -13041.415      9618.8637      16604.795      9547.369       9595.9951      9713.227     
       226   0.78104628     209.04078      27.642116     -13068.978     -13041.336      9538.7168      16604.795      9475.5847      9508.6307      9631.9349    
       227   0.78423691     211.51869      27.969778     -13069.226     -13041.256      9458.1316      16604.795      9403.3533      9420.8875      9550.1542    
       228   0.78741612     213.9739       28.294438     -13069.47      -13041.175      9377.5946      16604.795      9331.1255      9333.2621      9468.3963    
       229   0.79062205     216.39513      28.614605     -13069.709     -13041.095      9297.5892      16604.795      9259.3146      9246.3107      9387.1422    
       230   0.79381204     218.77103      28.928777     -13069.942     -13041.013      9218.7023      16604.795      9188.4945      9160.6312      9306.9811    
       231   0.79700737     221.09022      29.235452     -13070.167     -13040.931      9141.3974      16604.795      9119.0917      9076.7229      9228.3777    
       232   0.80026642     223.34142      29.533135     -13070.382     -13040.849      9066.2342      16604.795      9051.643       8995.169       9151.8907    
       233   0.80348241     225.51346      29.82035      -13070.587     -13040.767      8993.7367      16604.795      8986.611       8916.5144      9078.0848    
       234   0.80667884     227.59536      30.095646     -13070.779     -13040.684      8924.4397      16604.795      8924.5528      8841.3245      9007.4417    
       235   0.80995554     229.57643      30.357609     -13070.958     -13040.601      8858.8492      16604.795      8865.8762      8770.1549      8940.5163    
       236   0.8137642      231.44631      30.604869     -13071.122     -13040.517      8797.48        16604.795      8811.1529      8703.507       8877.7801    
       237   0.81760376     233.19504      30.83611      -13071.27      -13040.434      8740.8234      16604.795      8760.7778      8641.9475      8819.7448    
       238   0.82089829     234.81315      31.050077     -13071.401     -13040.351      8689.3395      16604.795      8715.1866      8585.9268      8766.9052    
       239   0.82407943     236.29167      31.245586     -13071.513     -13040.267      8643.5292      16604.795      8674.9234      8535.9346      8719.7297    
       240   0.82788149     237.62222      31.42153      -13071.605     -13040.183      8603.7644      16604.795      8640.2933      8492.41        8678.5898    
       241   0.83177313     238.79709      31.576887     -13071.677     -13040.1        8570.5035      16604.795      8611.7283      8455.8228      8643.9594    
       242   0.83510225     239.80924      31.710726     -13071.727     -13040.017      8544.1054      16604.795      8589.6064      8426.5153      8616.1944    
       243   0.83826005     240.65236      31.822215     -13071.756     -13039.933      8524.9131      16604.795      8574.2339      8404.8727      8595.6326    
       244   0.8414905      241.32096      31.910626     -13071.761     -13039.85       8513.2535      16604.795      8565.9303      8391.2048      8582.6254    
       245   0.84468348     241.81034      31.975337     -13071.743     -13039.768      8509.3809      16604.795      8564.9386      8385.7874      8577.4168    
       246   0.84807619     242.11666      32.015844     -13071.701     -13039.685      8513.5379      16604.795      8571.5031      8388.854       8580.2565    
       247   0.85202492     242.23699      32.031754     -13071.635     -13039.603      8525.9012      16604.795      8585.7847      8400.616       8591.3029    
       248   0.85634714     242.16927      32.022801     -13071.544     -13039.521      8546.6648      16604.795      8608.0031      8421.2325      8610.7587    
       249   0.86116627     241.91241      31.988835     -13071.428     -13039.44       8575.8824      16604.795      8638.1554      8450.7948      8638.6969    
       250   0.86612767     241.46623      31.929835     -13071.288     -13039.359      8613.6539      16604.795      8676.3798      8489.356       8675.2258    
       251   0.86982148     240.83152      31.845906     -13071.124     -13039.278      8659.9703      16604.795      8722.6701      8536.9164      8720.3245    
       252   0.87364043     240.01002      31.737275     -13070.935     -13039.198      8714.7935      16604.795      8777.0028      8593.4339      8773.9439    
       253   0.87724724     239.0044       31.6043       -13070.723     -13039.119      8778.0921      16604.795      8839.3264      8658.8622      8836.0878    
       254   0.88108865     237.81832      31.44746      -13070.487     -13039.04       8849.6834      16604.795      8909.4846      8733.029       8906.5367    
       255   0.88464242     236.45633      31.267361     -13070.229     -13038.961      8929.4177      16604.795      8987.3305      8815.7534      8985.1693    
       256   0.88820145     234.92394      31.064727     -13069.948     -13038.883      9017.0755      16604.795      9072.6501      8906.7793      9071.7971    
       257   0.89197691     233.22752      30.840404     -13069.647     -13038.806      9112.4151      16604.795      9165.2525      9005.8734      9166.1194    
       258   0.89584764     231.37433      30.595351     -13069.325     -13038.729      9215.1289      16604.795      9264.8021      9112.6998      9267.8848    
       259   0.90001281     229.37247      30.330639     -13068.984     -13038.653      9324.837       16604.795      9370.952       9226.8838      9376.6753    
       260   0.90402179     227.23085      30.047446     -13068.625     -13038.578      9441.1822      16604.795      9483.3834      9348.0195      9492.1437    
       261   0.90834872     224.95913      29.747049     -13068.25      -13038.503      9563.7231      16604.795      9601.6544      9475.6225      9613.8925    
       262   0.91283789     222.5677       29.430824     -13067.86      -13038.429      9692.0307      16604.795      9725.3712      9609.3072      9741.4137    
       263   0.91656786     220.06765      29.100234     -13067.455     -13038.355      9825.6027      16604.795      9854.0478      9748.4935      9874.2667    
       264   0.92007934     217.47066      28.756826     -13067.039     -13038.282      9963.8917      16604.795      9987.1541      9892.6138      10011.907    
       265   0.92380036     214.789        28.402221     -13066.612     -13038.209      10106.365      16604.795      10124.222      10041.126      10153.747    
       266   0.92757518     212.03545      28.038111     -13066.176     -13038.138      10252.462      16604.795      10264.662      10193.417      10299.306    
       267   0.93118611     209.22325      27.666245     -13065.732     -13038.066      10401.595      16604.795      10407.966      10348.898      10447.92     
       268   0.93477809     206.36603      27.288426     -13065.284     -13037.995      10553.129      16604.795      10553.477      10506.905      10599.004    
       269   0.93865505     203.47774      26.906499     -13064.832     -13037.925      10706.459      16604.795      10700.671      10666.787      10751.918    
       270   0.94261615     200.57261      26.522343     -13064.378     -13037.856      10860.921      16604.795      10848.87       10827.867      10906.026    
       271   0.94661527     197.66503      26.137865     -13063.924     -13037.786      11015.906      16604.795      10997.527      10989.501      11060.691    
       272   0.95120146     194.76953      25.754984     -13063.473     -13037.718      11170.753      16604.795      11145.978      11151.022      11215.26     
       273   0.95535463     191.90069      25.375628     -13063.025     -13037.65       11324.77       16604.795      11293.592      11311.688      11369.029    
       274   0.95956248     189.07306      25.001722     -13062.584     -13037.582      11477.371      16604.795      11439.798      11470.888      11521.427    
       275   0.96403202     186.30111      24.635178     -13062.15      -13037.515      11627.864      16604.795      11583.933      11627.913      11671.744    
       276   0.96848164     183.59913      24.277887     -13061.726     -13037.448      11775.668      16604.795      11725.444      11782.16       11819.4      
       277   0.97287726     180.98118      23.931707     -13061.313     -13037.382      11920.086      16604.795      11863.685      11932.872      11963.702    
       278   0.97726572     178.461        23.598457     -13060.914     -13037.316      12060.568      16604.795      11998.071      12079.545      12104.088    
       279   0.9818049      176.05198      23.279904     -13060.53      -13037.25       12196.476      16604.795      12128.04       12221.471      12239.916    
       280   0.98628534     173.76702      22.977757     -13060.163     -13037.185      12327.305      16604.795      12253.122      12358.135      12370.66     
       281   0.99080762     171.61856      22.693658     -13059.813     -13037.12       12452.482      16604.795      12372.726      12488.935      12495.785    
       282   0.99533845     169.6184       22.429172     -13059.484     -13037.055      12571.454      16604.795      12486.363      12613.311      12614.687    
       283   0.99974454     167.77776      22.185778     -13059.176     -13036.99       12683.747      16604.795      12593.548      12730.756      12726.936    
       284   1.0046631      166.10711      21.964863     -13058.891     -13036.926      12788.921      16604.795      12693.886      12840.835      12832.041    
       285   1.0093498      164.6162       21.767715     -13058.629     -13036.862      12886.54       16604.795      12786.943      12943.081      12929.597    
       286   1.0138019      163.31395      21.595514     -13058.393     -13036.797      12976.196      16604.795      12872.337      13037.088      13019.163    
       287   1.0187084      162.20842      21.449327     -13058.182     -13036.733      13057.529      16604.795      12949.73       13122.458      13100.4      
       288   1.0239034      161.30679      21.330101     -13057.999     -13036.669      13130.257      16604.795      13018.853      13198.905      13173.012    
       289   1.0284766      160.61525      21.238657     -13057.843     -13036.604      13194.08       16604.795      13079.384      13266.141      13236.714    
       290   1.0329238      160.13905      21.175687     -13057.715     -13036.54       13248.747      16604.795      13131.149      13323.847      13291.244    
       291   1.0374793      159.8824       21.14175      -13057.616     -13036.475      13294.108      16604.795      13173.989      13371.929      13336.406    
       292   1.0420602      159.84847      21.137263     -13057.547     -13036.41       13329.993      16604.795      13207.694      13410.186      13372.098    
       293   1.046875       160.03936      21.162506     -13057.507     -13036.344      13356.293      16604.795      13232.221      13438.501      13398.156    
       294   1.0515162      160.45611      21.217613     -13057.496     -13036.278      13372.967      16604.795      13247.508      13456.82       13414.574    
       295   1.0560332      161.09862      21.302575     -13057.514     -13036.212      13379.976      16604.795      13253.515      13465.107      13421.305    
       296   1.0604852      161.96574      21.417237     -13057.562     -13036.145      13377.401      16604.795      13250.343      13463.445      13418.415    
       297   1.0646152      163.05519      21.561298     -13057.639     -13036.077      13365.271      16604.795      13238.023      13451.842      13405.948    
       298   1.0695803      164.36358      21.734311     -13057.743     -13036.009      13343.754      16604.795      13216.709      13430.497      13384.057    
       299   1.0747997      165.88648      21.935688     -13057.876     -13035.94       13312.986      16604.795      13186.561      13399.523      13352.874    
       300   1.0801889      167.61834      22.164697     -13058.035     -13035.87       13273.208      16604.795      13147.797      13359.141      13312.687    
       301   1.0856226      169.55259      22.42047      -13058.22      -13035.8        13224.676      16604.795      13100.667      13309.674      13263.687    
       302   1.0912999      171.68166      22.702003     -13058.43      -13035.728      13167.695      16604.795      13045.459      13251.385      13206.242    
       303   1.0966955      173.99698      23.008164     -13058.664     -13035.656      13102.588      16604.795      12982.542      13184.616      13140.607    
       304   1.102743       176.48902      23.337695     -13058.92      -13035.582      13029.776      16604.795      12912.294      13109.778      13067.255    
       305   1.1090736      179.14739      23.68922      -13059.197     -13035.508      12949.644      16604.795      12835.073      13027.285      12986.575    
       306   1.1154018      181.96084      24.061251     -13059.494     -13035.433      12862.669      16604.795      12751.386      12937.623      12898.997    
       307   1.121194       184.91732      24.452196     -13059.808     -13035.356      12769.339      16604.795      12661.665      12841.272      12805.081    
       308   1.1275707      188.00408      24.860367     -13060.139     -13035.279      12670.196      16604.795      12566.465      12738.819      12705.304    
       309   1.1336011      191.20767      25.283989     -13060.484     -13035.2        12565.756      16604.795      12466.304      12630.737      12600.226    
       310   1.1392198      194.51409      25.721207     -13060.842     -13035.12       12456.624      16604.795      12361.72       12517.728      12490.426    
       311   1.1450826      197.90878      26.170097     -13061.21      -13035.04       12343.409      16604.795      12253.366      12400.346      12376.516    
       312   1.1506144      201.37676      26.628679     -13061.587     -13034.958      12226.734      16604.795      12141.79       12279.271      12259.142    
       313   1.1558121      204.90269      27.094923     -13061.97      -13034.875      12107.206      16604.795      12027.623      12155.107      12138.888    
       314   1.1604032      208.47092      27.566761     -13062.358     -13034.791      11985.504      16604.795      11911.493      12028.57       12016.448    
       315   1.1647001      212.06561      28.0421       -13062.748     -13034.706      11862.288      16604.795      11794.047      11900.33       11892.486    
       316   1.1689871      215.67084      28.518829     -13063.139     -13034.62       11738.259      16604.795      11675.982      11771.124      11767.669    
       317   1.1733642      219.2706       28.994838     -13063.529     -13034.534      11614.049      16604.795      11557.887      11641.599      11642.662    
       318   1.1776907      222.84899      29.468019     -13063.914     -13034.446      11490.341      16604.795      11440.436      11512.459      11518.128    
       319   1.1818963      226.39021      29.936286     -13064.294     -13034.358      11367.842      16604.795      11324.282      11384.44       11394.805    
       320   1.1860667      229.87871      30.397581     -13064.666     -13034.269      11247.201      16604.795      11210.089      11258.22       11273.295    
       321   1.1903134      233.29924      30.849888     -13065.029     -13034.179      11129.071      16604.795      11098.443      11134.465      11154.305    
       322   1.1952075      236.63694      31.291242     -13065.38      -13034.089      11014.086      16604.795      10989.949      11013.866      11038.441    
       323   1.200444       239.8774       31.71974      -13065.718     -13033.998      10902.888      16604.795      10885.268      10897.062      10926.334    
       324   1.2054886      243.0068       32.133549     -13066.041     -13033.907      10796.054      16604.795      10784.906      10784.655      10818.6      
       325   1.2108181      246.01188      32.53092      -13066.346     -13033.815      10694.19       16604.795      10689.471      10677.307      10715.793    
       326   1.2161532      248.88009      32.910193     -13066.634     -13033.724      10597.826      16604.795      10599.442      10575.536      10618.5      
       327   1.2217132      251.59964      33.269808     -13066.901     -13033.632      10507.518      16604.795      10515.351      10479.962      10527.241    
       328   1.2268376      254.15953      33.60831      -13067.148     -13033.539      10423.731      16604.795      10437.644      10391.07       10442.479    
       329   1.2320893      256.54961      33.924358     -13067.372     -13033.447      10346.909      16604.795      10366.712      10309.306      10364.709    
       330   1.2377417      258.76067      34.216733     -13067.572     -13033.355      10277.502      16604.795      10303.006      10235.167      10294.332    
       331   1.243594       260.78444      34.484342     -13067.747     -13033.263      10215.851      16604.795      10246.826      10168.998      10231.728    
       332   1.2485622      262.61362      34.726221     -13067.897     -13033.171      10162.321      16604.795      10198.517      10111.201      10177.246    
       333   1.2540005      264.24197      34.941542     -13068.021     -13033.08       10117.196      16604.795      10158.327      10062.075      10131.186    
       334   1.2594987      265.66427      35.129618     -13068.118     -13032.988      10080.705      16604.795      10126.459      10021.896      10093.759    
       335   1.2652053      266.8764       35.289901     -13068.187     -13032.898      10053.043      16604.795      10103.115      9990.7945      10065.219    
       336   1.2706061      267.87528      35.421987     -13068.229     -13032.807      10034.416      16604.795      10088.449      9969.1024      10045.697    
       337   1.275709       268.65897      35.525615     -13068.243     -13032.717      10024.904      16604.795      10082.508      9956.8437      10035.359    
       338   1.2814653      269.22657      35.600672     -13068.229     -13032.628      10024.576      16604.795      10085.36       9954.1471      10034.219    
       339   1.2870402      269.57832      35.647185     -13068.187     -13032.539      10033.435      16604.795      10097.008      9960.9749      10042.322    
       340   1.2923267      269.71549      35.665323     -13068.117     -13032.451      10051.459      16604.795      10117.394      9977.3478      10059.636    
       341   1.2977221      269.64045      35.6554       -13068.019     -13032.364      10078.562      16604.795      10146.41       10003.207      10086.068    
       342   1.3030904      269.35657      35.617862     -13067.895     -13032.277      10114.627      16604.795      10183.935      10038.396      10121.551    
       343   1.3083148      268.86827      35.553292     -13067.745     -13032.192      10159.496      16604.795      10229.796      10082.797      10165.895    
       344   1.3137631      268.18092      35.462402     -13067.569     -13032.106      10212.951      16604.795      10283.775      10136.174      10218.904    
       345   1.3187878      267.30085      35.346028     -13067.368     -13032.022      10274.764      16604.795      10345.636      10198.323      10280.333    
       346   1.3243298      266.23531      35.205128     -13067.144     -13031.938      10344.595      16604.795      10415.018      10268.869      10349.899    
       347   1.3298881      264.99237      35.04077      -13066.896     -13031.856      10422.164      16604.795      10491.657      10347.565      10427.27     
       348   1.3351064      263.58095      34.854133     -13066.628     -13031.774      10507.082      16604.795      10575.153      10433.959      10512.135    
       349   1.340627       262.01069      34.646494     -13066.339     -13031.692      10598.948      16604.795      10665.115      10527.721      10604.009    
       350   1.3457822      260.29197      34.419222     -13066.031     -13031.612      10697.36       16604.795      10761.143      10628.402      10702.534    
       351   1.3513555      258.4358       34.173774     -13065.706     -13031.532      10801.828      16604.795      10862.742      10735.498      10807.243    
       352   1.3568981      256.45376      33.911683     -13065.365     -13031.453      10911.865      16604.795      10969.443      10848.514      10917.639    
       353   1.3620533      254.35798      33.634551     -13065.009     -13031.375      11027.019      16604.795      11080.816      10966.983      11033.257    
       354   1.3675142      252.16103      33.344042     -13064.641     -13031.297      11146.711      16604.795      11196.267      11090.311      11153.554    
       355   1.3727313      249.8759       33.041872     -13064.262     -13031.22       11270.402      16604.795      11315.285      11217.955      11277.965    
       356   1.378144       247.51587      32.729798     -13063.874     -13031.144      11397.524      16604.795      11437.308      11349.326      11405.939    
       357   1.3834901      245.09452      32.409615     -13063.478     -13031.068      11527.531      16604.795      11561.82       11483.859      11536.915    
       358   1.3886752      242.62559      32.083141     -13063.076     -13030.993      11659.83       16604.795      11688.256      11620.926      11670.308    
       359   1.3942286      240.12297      31.752212     -13062.671     -13030.919      11793.821      16604.795      11816.017      11759.914      11805.533    
       360   1.3994834      237.60059      31.418669     -13062.263     -13030.845      11928.931      16604.795      11944.563      11900.255      11941.975    
       361   1.405122       235.07237      31.084355     -13061.856     -13030.771      12064.566      16604.795      12073.328      12041.292      12079.077    
       362   1.41045        232.55216      30.751099     -13061.449     -13030.698      12200.117      16604.795      12201.699      12182.412      12216.238    
       363   1.415535       230.05365      30.420714     -13061.046     -13030.625      12335.042      16604.795      12329.199      12323.066      12352.861    
       364   1.4210513      227.59033      30.094982     -13060.648     -13030.553      12468.773      16604.795      12455.264      12462.644      12488.412    
       365   1.4262969      225.17542      29.77565      -13060.257     -13030.481      12600.712      16604.795      12579.325      12600.515      12622.295    
       366   1.4320147      222.82178      29.464421     -13059.874     -13030.409      12730.341      16604.795      12700.923      12736.146      12753.954    
       367   1.4372716      220.54189      29.162943     -13059.501     -13030.338      12857.137      16604.795      12819.52       12868.989      12882.902    
       368   1.4426261      218.34775      28.872806     -13059.139     -13030.266      12980.592      16604.795      12934.669      12998.533      13008.575    
       369   1.4480793      216.25088      28.59553      -13058.791     -13030.195      13100.218      16604.795      13045.916      13124.2        13130.539    
       370   1.4533168      214.26219      28.33256      -13058.457     -13030.124      13215.543      16604.795      13152.759      13245.565      13248.306    
       371   1.4590465      212.392        28.085259     -13058.139     -13030.053      13326.156      16604.795      13254.902      13362.15       13361.416    
       372   1.4645502      210.64995      27.854902     -13057.837     -13029.983      13431.6        16604.795      13351.87       13473.494      13469.435    
       373   1.4699026      209.04498      27.642671     -13057.554     -13029.912      13531.561      16604.795      13443.376      13579.246      13572.061    
       374   1.4753815      207.58525      27.449647     -13057.29      -13029.841      13625.673      16604.795      13529.12       13679.003      13668.894    
       375   1.4806131      206.27816      27.276806     -13057.047     -13029.77       13713.616      16604.795      13608.784      13772.444      13759.62     
       376   1.4860123      205.13025      27.125015     -13056.824     -13029.699      13795.049      16604.795      13682.047      13859.205      13843.895    
       377   1.491215       204.14725      26.99503      -13056.622     -13029.627      13869.838      16604.795      13748.822      13939.115      13921.579    
       378   1.4967537      203.33398      26.887488     -13056.443     -13029.556      13937.673      16604.795      13808.82       14011.828      13992.37     
       379   1.502483       202.69436      26.802909     -13056.287     -13029.484      13998.447      16604.795      13861.975      14077.255      14056.111    
       380   1.5076687      202.23139      26.74169      -13056.153     -13029.412      14051.985      16604.795      13908.117      14135.188      14112.649    
       381   1.513063       201.94718      26.704107     -13056.043     -13029.339      14098.221      16604.795      13947.242      14185.51       14161.912    
       382   1.5180562      201.84284      26.69031      -13055.957     -13029.266      14137.042      16604.795      13979.222      14228.121      14203.785    
       383   1.5239576      201.9186       26.700328     -13055.893     -13029.193      14168.455      16604.795      14004.113      14263.002      14238.25     
       384   1.5293996      202.17372      26.734064     -13055.853     -13029.119      14192.47       16604.795      14021.954      14290.135      14265.322    
       385   1.5348209      202.60655      26.791298     -13055.836     -13029.045      14209.144      16604.795      14032.795      14309.598      14285.04     
       386   1.5404204      203.2145       26.87169      -13055.842     -13028.97       14218.521      16604.795      14036.708      14321.4        14297.455    
       387   1.5454176      203.99412      26.97478      -13055.87      -13028.895      14220.777      16604.795      14033.913      14325.694      14302.723    
       388   1.5509677      204.94104      27.099995     -13055.919     -13028.819      14216.062      16604.795      14024.577      14322.619      14300.991    
       389   1.5562666      206.05007      27.246645     -13055.989     -13028.742      14204.538      16604.795      14008.857      14312.338      14292.418    
       390   1.5616924      207.31518      27.413934     -13056.079     -13028.665      14186.466      16604.795      13987.04       14295.115      14277.244    
       391   1.5673977      208.72957      27.600964     -13056.188     -13028.587      14162.082      16604.795      13959.431      14271.135      14255.679    
       392   1.5728453      210.28569      27.806734     -13056.315     -13028.508      14131.683      16604.795      13926.224      14240.76       14228.066    
       393   1.5787424      211.97529      28.030156     -13056.459     -13028.429      14095.588      16604.795      13887.855      14204.237      14194.671    
       394   1.5844741      213.78947      28.270051     -13056.619     -13028.349      14054.153      16604.795      13844.656      14161.957      14155.846    
       395   1.5898012      215.71873      28.525163     -13056.793     -13028.268      14007.731      16604.795      13796.978      14114.274      14111.941    
       396   1.5953396      217.75302      28.794163     -13056.981     -13028.187      13956.729      16604.795      13745.235      14061.574      14063.378    
       397   1.6005098      219.8818       29.075658     -13057.18      -13028.104      13901.572      16604.795      13689.879      14004.299      14010.537    
       398   1.6058365      222.0941       29.368198     -13057.389     -13028.021      13842.679      16604.795      13631.328      13942.867      13953.841    
       399   1.6111812      224.37859      29.670284     -13057.608     -13027.938      13780.512      16604.795      13570.017      13877.768      13893.752    
       400   1.6165422      226.72365      29.980377     -13057.833     -13027.853      13715.54       16604.795      13506.452      13809.45       13830.718    
       401   1.6222464      229.1174       30.29691      -13058.065     -13027.768      13648.239      16604.795      13441.094      13738.403      13765.219    
       402   1.6275082      231.54781      30.618291     -13058.301     -13027.682      13579.066      16604.795      13374.401      13665.115      13697.681    
       403   1.6330957      234.00275      30.942916     -13058.539     -13027.596      13508.57       16604.795      13306.899      13590.119      13628.693    
       404   1.6384087      236.47007      31.269177     -13058.778     -13027.509      13437.199      16604.795      13239.045      13513.909      13558.642    
       405   1.6435855      238.93763      31.595471     -13059.017     -13027.422      13365.498      16604.795      13171.371      13437.015      13488.107    
       406   1.6489863      241.39345      31.920211     -13059.254     -13027.334      13293.896      16604.795      13104.306      13359.895      13417.486    
       407   1.6543571      243.82567      32.241831     -13059.487     -13027.245      13222.957      16604.795      13038.39       13283.146      13347.334    
       408   1.6601422      246.22271      32.558799     -13059.715     -13027.156      13153.099      16604.795      12974.028      13207.192      13278.077    
       409   1.6658196      248.5733       32.869625     -13059.937     -13027.067      13084.824      16604.795      12911.709      13132.57       13210.194    
       410   1.6712367      250.86652      33.172864     -13060.151     -13026.978      13018.593      16604.795      12851.887      13059.764      13144.127    
       411   1.6767467      253.0919       33.467133     -13060.355     -13026.888      12954.853      16604.795      12794.97       12989.237      13080.352    
       412   1.6819646      255.23945      33.751111     -13060.549     -13026.798      12894.03       16604.795      12741.376      12921.442      13019.272    
       413   1.6872396      257.29975      34.023551     -13060.732     -13026.708      12836.505      16604.795      12691.467      12856.799      12961.249    
       414   1.6927638      259.26394      34.283282     -13060.901     -13026.618      12782.694      16604.795      12645.623      12795.766      12906.693    
       415   1.6979477      261.12384      34.529222     -13061.057     -13026.528      12732.937      16604.795      12604.176      12738.688      12855.949    
       416   1.7036502      262.87193      34.760377     -13061.198     -13026.438      12687.605      16604.795      12567.453      12685.99       12809.371    
       417   1.7090938      264.50144      34.975853     -13061.323     -13026.348      12646.944      16604.795      12535.706      12637.917      12767.207    
       418   1.7143129      266.00635      35.174851     -13061.433     -13026.258      12611.302      16604.795      12509.226      12594.911      12729.77     
       419   1.719714       267.38143      35.356683     -13061.525     -13026.168      12580.838      16604.795      12488.141      12557.117      12697.256    
       420   1.7248979      268.62227      35.520763     -13061.599     -13026.079      12555.868      16604.795      12472.78       12524.9        12669.924    
       421   1.7305983      269.7253       35.66662      -13061.656     -13025.989      12536.497      16604.795      12463.154      12498.39       12647.946    
       422   1.7360957      270.68779      35.793893     -13061.694     -13025.901      12522.888      16604.795      12459.44       12477.794      12631.43     
       423   1.7414666      271.50787      35.902335     -13061.714     -13025.812      12515.145      16604.795      12461.706      12463.241      12620.489    
       424   1.7470849      272.18454      35.991813     -13061.716     -13025.724      12513.391      16604.795      12470.023      12454.91       12615.241    
       425   1.7522942      272.71764      36.062307     -13061.699     -13025.636      12517.626      16604.795      12484.392      12452.799      12615.687    
       426   1.757633       273.10788      36.113909     -13061.663     -13025.549      12527.871      16604.795      12504.76       12456.976      12621.878    
       427   1.7631159      273.35679      36.146824     -13061.61      -13025.463      12544.101      16604.795      12531.115      12467.441      12633.748    
       428   1.7685094      273.46675      36.161364     -13061.538     -13025.377      12566.225      16604.795      12563.296      12484.14       12651.238    
       429   1.7743416      273.44091      36.157947     -13061.449     -13025.291      12594.149      16604.795      12601.191      12506.986      12674.27     
       430   1.780073       273.28321      36.137094     -13061.343     -13025.206      12627.788      16604.795      12644.69       12535.929      12702.744    
       431   1.7853315      272.99832      36.099422     -13061.221     -13025.122      12666.936      16604.795      12693.566      12570.769      12736.473    
       432   1.7908948      272.59161      36.045641     -13061.084     -13025.038      12711.395      16604.795      12747.562      12611.348      12775.276    
       433   1.7963275      272.06913      35.976552     -13060.931     -13024.955      12760.95       16604.795      12806.456      12657.439      12818.955    
       434   1.8015276      271.43754      35.893035     -13060.765     -13024.872      12815.328      16604.795      12869.932      12708.799      12867.253    
       435   1.8070646      270.70408      35.796048     -13060.586     -13024.79       12874.274      16604.795      12937.716      12765.177      12919.93     
       436   1.8126549      269.87651      35.686616     -13060.395     -13024.709      12937.464      16604.795      13009.449      12826.255      12976.686    
       437   1.8180093      268.96307      35.565828     -13060.194     -13024.628      13004.57       16604.795      13084.764      12891.71       13037.236    
       438   1.8234         267.97241      35.43483      -13059.982     -13024.548      13075.241      16604.795      13163.309      12961.214      13101.201    
       439   1.8285216      266.91355      35.294814     -13059.763     -13024.468      13149.078      16604.795      13244.668      13034.317      13168.251    
       440   1.8342662      265.79581      35.147012     -13059.536     -13024.389      13225.758      16604.795      13328.467      13110.744      13238.063    
       441   1.8400308      264.62877      34.99269      -13059.303     -13024.31       13304.807      16604.795      13414.213      13189.996      13310.212    
       442   1.8453384      263.42219      34.83314      -13059.065     -13024.232      13385.856      16604.795      13501.527      13271.704      13384.338    
       443   1.8507976      262.18594      34.669668     -13058.823     -13024.154      13468.493      16604.795      13589.993      13355.397      13460.089    
       444   1.8561225      260.93         34.503591     -13058.58      -13024.076      13552.265      16604.795      13679.117      13440.663      13537.015    
       445   1.8613642      259.66434      34.336227     -13058.336     -13023.999      13636.727      16604.795      13768.451      13527.037      13614.692    
       446   1.8671119      258.39886      34.168889     -13058.092     -13023.923      13721.473      16604.795      13857.58       13614.081      13692.757    
       447   1.872465       257.14338      34.002874     -13057.849     -13023.847      13806.087      16604.795      13946.088      13701.359      13770.813    
       448   1.8781208      255.90757      33.839459     -13057.61      -13023.771      13890.145      16604.795      14033.489      13788.44       13848.506    
       449   1.8839029      254.70086      33.679891     -13057.375     -13023.695      13973.168      16604.795      14119.36       13874.81       13925.334    
       450   1.8894205      253.53242      33.525384     -13057.145     -13023.619      14054.826      16604.795      14203.342      13960.128      14001.007    
       451   1.8946569      252.41109      33.377108     -13056.921     -13023.544      14134.707      16604.795      14285.012      14043.948      14075.161    
       452   1.9003247      251.34537      33.236185     -13056.705     -13023.469      14212.415      16604.795      14363.976      14125.868      14147.401    
       453   1.9055359      250.34333      33.103682     -13056.498     -13023.394      14287.588      16604.795      14439.876      14205.478      14217.411    
       454   1.9109312      249.41259      32.980607     -13056.3       -13023.319      14359.874      16604.795      14512.377      14282.412      14284.833    
       455   1.916446       248.56026      32.867901     -13056.112     -13023.244      14428.997      16604.795      14581.198      14356.372      14349.42     
       456   1.9216186      247.79294      32.766436     -13055.936     -13023.17       14494.624      16604.795      14646.014      14427.006      14410.85     
       457   1.9271212      247.11665      32.677008     -13055.772     -13023.095      14556.484      16604.795      14706.554      14494.002      14468.896    
       458   1.9324642      246.53682      32.600336     -13055.62      -13023.02       14614.298      16604.795      14762.562      14557.053      14523.278    
       459   1.93798        246.05827      32.537055     -13055.482     -13022.945      14667.903      16604.795      14813.92       14615.98       14573.81     
       460   1.9436827      245.68514      32.487715     -13055.358     -13022.87       14717.073      16604.795      14860.375      14670.528      14620.316    
       461   1.9489064      245.42095      32.45278      -13055.248     -13022.795      14761.649      16604.795      14901.795      14720.546      14662.606    
       462   1.9542762      245.26851      32.432622     -13055.152     -13022.72       14801.482      16604.795      14938.051      14765.832      14700.562    
       463   1.9598281      245.22994      32.427522     -13055.072     -13022.644      14836.504      16604.795      14969.128      14806.275      14734.109    
       464   1.9651634      245.30668      32.437669     -13055.006     -13022.568      14866.598      16604.795      14994.894      14841.77       14763.132    
       465   1.9708838      245.49944      32.463159     -13054.956     -13022.492      14891.755      16604.795      15015.358      14872.291      14787.617    
       466   1.976472       245.80824      32.503993     -13054.92      -13022.416      14911.954      16604.795      15030.583      14897.774      14807.504    
       467   1.9819762      246.23241      32.560082     -13054.9       -13022.34       14927.183      16604.795      15040.528      14918.207      14822.816    
       468   1.9874494      246.77056      32.631243     -13054.894     -13022.263      14937.533      16604.795      15045.315      14933.672      14833.612    
       469   1.9930482      247.42063      32.717204     -13054.903     -13022.185      14943.052      16604.795      15045.052      14944.166      14839.939    
       470   1.9982553      248.17989      32.817603     -13054.925     -13022.108      14943.872      16604.795      15039.876      14949.874      14841.867    
       471   2.0035164      249.04497      32.931995     -13054.962     -13022.03       14940.081      16604.795      15029.931      14950.778      14839.533    
       472   2.0092691      250.01185      33.05985      -13055.011     -13021.952      14931.889      16604.795      15015.428      14947.148      14833.091    
       473   2.0145218      251.07593      33.200556     -13055.073     -13021.873      14919.464      16604.795      14996.587      14939.127      14822.678    
       474   2.0200496      252.23202      33.353429     -13055.147     -13021.794      14903.035      16604.795      14973.653      14926.913      14808.538    
       475   2.02532        253.47439      33.517711     -13055.232     -13021.714      14882.787      16604.795      14946.88       14910.701      14790.78     
       476   2.0308586      254.79679      33.692577     -13055.327     -13021.635      14859.051      16604.795      14916.571      14890.831      14769.751    
       477   2.0360488      256.19253      33.87714      -13055.431     -13021.554      14832.021      16604.795      14882.999      14867.462      14745.603    
       478   2.0417058      257.65447      34.070457     -13055.544     -13021.474      14802.053      16604.795      14846.525      14840.956      14718.677    
       479   2.0467608      259.17507      34.271531     -13055.664     -13021.393      14769.436      16604.795      14807.485      14811.603      14689.222    
[...]
       894   4.3610503      292.88825      38.729529     -13050.075     -13011.346      16789.842      16604.795      16653.133      16758.366      16958.026    
       895   4.3664634      294.9428       39.001209     -13050.368     -13011.366      16718.101      16604.795      16580.559      16687.828      16885.915    
       896   4.3721081      297.03013      39.277223     -13050.665     -13011.387      16645.486      16604.795      16507.289      16615.734      16813.436    
       897   4.377403       299.14151      39.556417     -13050.965     -13011.408      16572.204      16604.795      16433.529      16542.318      16740.765    
       898   4.3831939      301.26816      39.837631     -13051.267     -13011.429      16498.568      16604.795      16359.62       16467.874      16668.209    
       899   4.3886692      303.40128      40.1197       -13051.57      -13011.45       16424.82       16604.795      16285.754      16392.684      16596.023    
       900   4.3940531      305.53206      40.40146      -13051.873     -13011.472      16351.201      16604.795      16212.24       16316.93       16524.433    
       901   4.3996393      307.65177      40.681755     -13052.175     -13011.494      16277.964      16604.795      16139.274      16240.948      16453.671    
       902   4.4050921      309.75175      40.959443     -13052.475     -13011.516      16205.374      16604.795      16067.163      16164.982      16383.978    
       903   4.4105766      311.82349      41.233396     -13052.772     -13011.538      16133.653      16604.795      15996.145      16089.27       16315.544    
       904   4.4161154      313.85864      41.50251      -13053.064     -13011.561      16063.103      16604.795      15926.505      16014.12       16248.684    
       905   4.4212321      315.84905      41.765708     -13053.35      -13011.585      15993.92       16604.795      15858.417      15939.79       16183.554    
       906   4.4268971      317.78681      42.021944     -13053.631     -13011.609      15926.341      16604.795      15792.167      15866.481      16120.374    
       907   4.4323105      319.66428      42.270208     -13053.903     -13011.633      15860.607      16604.795      15727.948      15794.524      16059.349    
       908   4.4377974      321.47412      42.509528     -13054.168     -13011.659      15796.943      16604.795      15666.029      15724.108      16000.693    
       909   4.4433928      323.2093       42.738977     -13054.424     -13011.685      15735.549      16604.795      15606.58       15655.493      15944.575    
       910   4.4485374      324.86318      42.957674     -13054.669     -13011.712      15676.64       16604.795      15549.835      15588.91       15891.176    
       911   4.454369       326.42946      43.164788     -13054.904     -13011.739      15620.403      16604.795      15495.947      15524.587      15840.675    
       912   4.4615825      327.90226      43.359542     -13055.127     -13011.768      15567.051      16604.795      15445.125      15462.759      15793.27     
       913   4.4672506      329.27614      43.541214     -13055.338     -13011.797      15516.699      16604.795      15397.506      15403.551      15749.041    
       914   4.4726795      330.54607      43.709141     -13055.537     -13011.828      15469.505      16604.795      15353.234      15347.178      15708.103    
       915   4.4783359      331.70751      43.862721     -13055.722     -13011.859      15425.665      16604.795      15312.488      15293.847      15670.66     
       916   4.4841013      332.75636      44.001414     -13055.893     -13011.891      15385.235      16604.795      15275.312      15243.657      15636.738    
       917   4.4895684      333.68903      44.124744     -13056.05      -13011.925      15348.374      16604.795      15241.873      15196.804      15606.446    
       918   4.4951294      334.50243      44.232303     -13056.192     -13011.959      15315.166      16604.795      15212.255      15153.362      15579.879    
       919   4.5007318      335.19397      44.323747     -13056.319     -13011.995      15285.651      16604.795      15186.479      15113.423      15557.051    
       920   4.505946       335.76157      44.398803     -13056.43      -13012.031      15259.932      16604.795      15164.625      15077.144      15538.026    
       921   4.5114236      336.20368      44.457265     -13056.526     -13012.069      15238.001      16604.795      15146.688      15044.512      15522.805    
       922   4.5171428      336.51928      44.498997     -13056.607     -13012.108      15219.938      16604.795      15132.784      15015.642      15511.389    
       923   4.5226071      336.70784      44.523931     -13056.671     -13012.148      15205.712      16604.795      15122.797      14990.538      15503.803    
       924   4.5285017      336.76939      44.532069     -13056.72      -13012.188      15195.317      16604.795      15116.779      14969.223      15499.948    
       925   4.5338564      336.70446      44.523483     -13056.754     -13012.23       15188.699      16604.795      15114.64       14951.673      15499.784    
       926   4.5394731      336.51409      44.498311     -13056.771     -13012.273      15185.876      16604.795      15116.403      14937.903      15503.322    
       927   4.5451823      336.19986      44.456759     -13056.773     -13012.317      15186.721      16604.795      15121.933      14927.871      15510.361    
       928   4.5508453      335.76379      44.399097     -13056.761     -13012.361      15191.211      16604.795      15131.228      14921.511      15520.893    
       929   4.5562587      335.20845      44.325661     -13056.733     -13012.407      15199.213      16604.795      15144.122      14918.761      15534.756    
       930   4.5619056      334.53681      44.236849     -13056.69      -13012.453      15210.624      16604.795      15160.519      14919.515      15551.84     
       931   4.5673135      333.75236      44.133118     -13056.634     -13012.501      15225.375      16604.795      15180.355      14923.756      15572.012    
       932   4.5726456      332.85897      44.014983     -13056.564     -13012.549      15243.297      16604.795      15203.465      14931.327      15595.099    
       933   4.578132       331.86097      43.883014     -13056.481     -13012.597      15264.273      16604.795      15229.723      14942.111      15620.985    
       934   4.5836746      330.76305      43.737833     -13056.385     -13012.647      15288.12       16604.795      15258.934      14955.975      15649.452    
       935   4.5894454      329.57029      43.58011      -13056.277     -13012.697      15314.707      16604.795      15290.994      14972.801      15680.327    
       936   4.5950773      328.28809      43.410561     -13056.158     -13012.747      15343.845      16604.795      15325.692      14992.405      15713.438    
       937   4.6004758      326.9222       43.229945     -13056.028     -13012.798      15375.374      16604.795      15362.876      15014.667      15748.58     
       938   4.6061553      325.47861      43.039055     -13055.889     -13012.85       15409.092      16604.795      15402.329      15039.387      15785.56     
       939   4.611257       323.96362      42.838722     -13055.74      -13012.901      15444.826      16604.795      15443.9        15066.421      15824.157    
       940   4.6168926      322.38371      42.629806     -13055.583     -13012.953      15482.381      16604.795      15487.386      15095.579      15864.178    
       941   4.622228       320.74559      42.413192     -13055.418     -13013.005      15521.502      16604.795      15532.525      15126.621      15905.361    
       942   4.6276365      319.05611      42.189787     -13055.247     -13013.058      15562.026      16604.795      15579.141      15159.392      15947.545    
       943   4.6329929      317.32226      41.960515     -13055.07      -13013.11       15603.753      16604.795      15627.035      15193.745      15990.477    
       944   4.6383472      315.55112      41.726312     -13054.888     -13013.162      15646.427      16604.795      15675.962      15229.385      16033.934    
       945   4.6443226      313.74986      41.488125     -13054.703     -13013.214      15689.829      16604.795      15725.668      15266.151      16077.67     
       946   4.6498549      311.92563      41.246902     -13054.514     -13013.267      15733.774      16604.795      15775.981      15303.836      16121.505    
       947   4.6552128      310.08563      41.003593     -13054.322     -13013.319      15778.02       16604.795      15826.62       15342.224      16165.215    
       948   4.6607468      308.23698      40.75914      -13054.129     -13013.37       15822.352      16604.795      15877.381      15381.128      16208.545    
       949   4.6659647      306.38677      40.514481     -13053.936     -13013.422      15866.508      16604.795      15927.994      15420.27       16251.259    
       950   4.6716815      304.54196      40.270536     -13053.743     -13013.473      15910.322      16604.795      15978.225      15459.531      16293.209    
       951   4.6773673      302.70939      40.028209     -13053.552     -13013.524      15953.564      16604.795      16027.904      15498.654      16334.135    
       952   4.6829242      300.89574      39.788385     -13053.362     -13013.574      15996.016      16604.795      16076.725      15537.474      16373.849    
       953   4.6885436      299.1075       39.551921     -13053.176     -13013.624      16037.466      16604.795      16124.493      15575.757      16412.147    
       954   4.6937777      297.35095      39.319646     -13052.993     -13013.673      16077.702      16604.795      16170.95       15613.33       16448.828    
       955   4.6992074      295.6321       39.092358     -13052.814     -13013.722      16116.545      16604.795      16215.867      15650.014      16483.753    
       956   4.7049362      293.95673      38.870818     -13052.641     -13013.77       16153.821      16604.795      16259.107      15685.657      16516.698    
       957   4.7105144      292.3303       38.65575      -13052.473     -13013.818      16189.324      16604.795      16300.407      15720.036      16547.528    
       958   4.7159694      290.75797      38.447836     -13052.312     -13013.865      16222.881      16604.795      16339.552      15753.011      16576.08     
       959   4.7212067      289.24456      38.247713     -13052.159     -13013.911      16254.388      16604.795      16376.417      15784.493      16602.255    
       960   4.7265615      287.79456      38.055975     -13052.012     -13013.956      16283.643      16604.795      16410.776      15814.262      16625.892    
       961   4.7323284      286.41207      37.873165     -13051.874     -13014.001      16310.498      16604.795      16442.452      15842.213      16646.828    
       962   4.7376591      285.10084      37.699775     -13051.745     -13014.045      16334.918      16604.795      16471.378      15868.292      16665.082    
       963   4.7430865      283.86419      37.53625      -13051.625     -13014.089      16356.717      16604.795      16497.356      15892.314      16680.482    
       964   4.7485043      282.70509      37.382978     -13051.515     -13014.132      16375.833      16604.795      16520.262      15914.233      16693.004    
       965   4.7538985      281.62607      37.240296     -13051.414     -13014.174      16392.153      16604.795      16539.973      15933.935      16702.551    
       966   4.7597346      280.62926      37.108485     -13051.323     -13014.215      16405.673      16604.795      16556.466      15951.412      16709.143    
       967   4.7654027      279.71638      36.987772     -13051.243     -13014.255      16416.281      16604.795      16569.636      15966.531      16712.676    
       968   4.7708734      278.88872      36.878328     -13051.173     -13014.295      16423.98       16604.795      16579.427      15979.288      16713.223    
       969   4.7764513      278.14717      36.78027      -13051.114     -13014.334      16428.76       16604.795      16585.823      15989.712      16710.745    
       970   4.7816317      277.49219      36.693661     -13051.066     -13014.372      16430.596      16604.795      16588.784      15997.695      16705.308    
       971   4.7871607      276.92386      36.618508     -13051.028     -13014.41       16429.516      16604.795      16588.337      16003.299      16696.912    
       972   4.79282        276.44183      36.554768     -13051.001     -13014.447      16425.527      16604.795      16584.493      16006.482      16685.606    
       973   4.7982739      276.04537      36.502342     -13050.985     -13014.483      16418.666      16604.795      16577.251      16007.273      16671.475    
       974   4.8038722      275.73335      36.461084     -13050.979     -13014.518      16409.054      16604.795      16566.763      16005.781      16654.618    
       975   4.8092392      275.5043       36.430796     -13050.983     -13014.553      16396.682      16604.795      16553.037      16001.936      16635.072    
       976   4.8145365      275.35636      36.411233     -13050.998     -13014.586      16381.683      16604.795      16536.173      15995.879      16612.995    
       977   4.8202514      275.28733      36.402105     -13051.022     -13014.62       16364.135      16604.795      16516.279      15987.625      16588.5      
       978   4.825924       275.29469      36.403078     -13051.055     -13014.652      16344.168      16604.795      16493.506      15977.3        16561.699    
       979   4.8314057      275.3756       36.413776     -13051.098     -13014.684      16321.91       16604.795      16468.007      15964.982      16532.741    
       980   4.8369006      275.52692      36.433786     -13051.149     -13014.715      16297.473      16604.795      16439.901      15950.744      16501.775    
       981   4.8421562      275.74525      36.462657     -13051.209     -13014.746      16271.034      16604.795      16409.383      15934.752      16468.967    
       982   4.8480584      276.02693      36.499905     -13051.276     -13014.776      16242.722      16604.795      16376.631      15917.055      16434.479    
       983   4.8536839      276.36808      36.545016     -13051.35      -13014.805      16212.709      16604.795      16341.832      15897.812      16398.482    
       984   4.8591741      276.7646       36.597449     -13051.432     -13014.834      16181.197      16604.795      16305.222      15877.193      16361.175    
       985   4.8647145      277.21223      36.656641     -13051.519     -13014.862      16148.318      16604.795      16266.986      15855.281      16322.687    
       986   4.8703381      277.70654      36.722004     -13051.612     -13014.89       16114.305      16604.795      16227.346      15832.277      16283.291    
       987   4.8756438      278.24297      36.792939     -13051.71      -13014.917      16079.334      16604.795      16186.547      15808.302      16243.153    
       988   4.8813387      278.81689      36.86883      -13051.813     -13014.944      16043.604      16604.795      16144.847      15783.529      16202.435    
       989   4.8869227      279.42357      36.949052     -13051.919     -13014.97       16007.299      16604.795      16102.434      15758.1        16161.363    
       990   4.8926267      280.05824      37.032978     -13052.029     -13014.996      15970.653      16604.795      16059.573      15732.233      16120.151    
       991   4.8983718      280.71615      37.119974     -13052.141     -13015.021      15933.824      16604.795      16016.488      15706.043      16078.941    
       992   4.9036216      281.39252      37.209414     -13052.255     -13015.046      15897.052      16604.795      15973.461      15679.726      16037.968    
       993   4.9090854      282.08266      37.300673     -13052.371     -13015.07       15860.51       16604.795      15930.68       15653.45       15997.398    
       994   4.9145848      282.78193      37.39314      -13052.487     -13015.094      15824.39       16604.795      15888.414      15627.33       15957.426    
       995   4.9200179      283.4858       37.486214     -13052.604     -13015.117      15788.886      16604.795      15846.862      15601.577      15918.219    
       996   4.9255851      284.18987      37.579316     -13052.72      -13015.141      15754.178      16604.795      15806.234      15576.327      15879.974    
       997   4.9307301      284.88989      37.671882     -13052.835     -13015.163      15720.437      16604.795      15766.784      15551.717      15842.811    
       998   4.936365       285.58181      37.763376     -13052.949     -13015.186      15687.853      16604.795      15728.691      15527.933      15806.934    
       999   4.9419579      286.26176      37.853288     -13053.061     -13015.208      15656.556      16604.795      15692.146      15505.083      15772.44     
      1000   4.9476443      286.92611      37.941138     -13053.171     -13015.23       15626.681      16604.795      15657.336      15483.258      15739.448    
Loop time of 4.94768 on 16 procs for 1000 steps with 1024 atoms

Performance: 17.463 ns/day, 1.374 hours/ns, 202.115 timesteps/s
99.5% CPU use with 16 MPI tasks x 1 OpenMP threads

MPI task timing breakdown:
Section |  min time  |  avg time  |  max time  |%varavg| %total
---------------------------------------------------------------
Pair    | 4.3308     | 4.3797     | 4.4363     |   1.5 | 88.52
Neigh   | 0          | 0          | 0          |   0.0 |  0.00
Comm    | 0.17372    | 0.23063    | 0.27898    |   6.5 |  4.66
Output  | 0.29243    | 0.29419    | 0.31655    |   1.1 |  5.95
Modify  | 0.014426   | 0.016108   | 0.017655   |   0.9 |  0.33
Other   |            | 0.02708    |            |       |  0.55

Nlocal:             64 ave          64 max          64 min
Histogram: 16 0 0 0 0 0 0 0 0 0
Nghost:            887 ave         887 max         887 min
Histogram: 16 0 0 0 0 0 0 0 0 0
Neighs:              0 ave           0 max           0 min
Histogram: 16 0 0 0 0 0 0 0 0 0
FullNghs:         5632 ave        5632 max        5632 min
Histogram: 16 0 0 0 0 0 0 0 0 0

Total # of neighbors = 90112
Ave neighs/atom = 88
Neighbor list builds = 0
Dangerous builds = 0


--------------------------------------------------------------------------

                               FLOPs Report

--------------------------------------------------------------------------
         alloc:     0.0000 GFlops,       0.0001 secs,       0.0000 GFLOP/s
         setup:     0.0000 GFlops,       0.2353 secs,       0.0000 GFLOP/s
   fnn->interp:     3.4243 GFlops,       1.2068 secs,       2.8374 GFLOP/s
             P:     7.2090 GFlops,       0.4984 secs,      14.4645 GFLOP/s
             Q:     0.4506 GFlops,       0.0853 secs,       5.2817 GFLOP/s
             G:     0.0020 GFlops,       0.0115 secs,       0.1777 GFLOP/s
   nn->compute:    12.7224 GFlops,       0.4752 secs,      26.7748 GFLOP/s
          dEdP:     0.4547 GFlops,       0.1056 secs,       4.3069 GFLOP/s
            UV:    14.4179 GFlops,       0.9510 secs,      15.1606 GFLOP/s
            F1:     0.3773 GFlops,       0.3634 secs,       1.0383 GFLOP/s
            F2:     0.2422 GFlops,       0.3771 secs,       0.6422 GFLOP/s
        forces:     0.0676 GFlops,       0.0425 secs,       1.5910 GFLOP/s
--------------------------------------------------------------------------
       Overall:    39.3679 GFlops,       4.3522 secs,       9.0455 GFLOP/s
--------------------------------------------------------------------------

Total wall time: 0:00:05
