LAMMPS (4 May 2022)
  using 1 OpenMP thread(s) per MPI task
variable                    T equal 300
variable                    R equal 984523

units		                metal
dimension                   3
boundary	                p p p
atom_style	                atomic

lattice                     bcc 3.189
Lattice spacing in x,y,z = 3.189 3.189 3.189
region                      box block 0 8 0 8 0 8
create_box                  1 box
Created orthogonal box = (0 0 0) to (25.512 25.512 25.512)
  2 by 2 by 4 MPI processor grid
create_atoms                1 box
Created 1024 atoms
  using lattice units in orthogonal box = (0 0 0) to (25.512 25.512 25.512)
  create_atoms CPU = 0.003 seconds

pair_style	                tensormd
pair_coeff	                * * ../../../W_k32_snapshot.npz W interp 0.005 1
Use interpolation: dr = 0.0050, algo = batch

mass                        1 183.8

neighbor                    1.0 bin
neigh_modify                every 1 delay 0 check yes

thermo                      1
thermo_style                custom step cpu temp ke pe etotal press vol pxx pyy pzz

velocity                    all create $T $R dist gaussian
velocity                    all create 300 $R dist gaussian
velocity                    all create 300 984523 dist gaussian
fix                         1 all nvt temp $T $T 0.1
fix                         1 all nvt temp 300 $T 0.1
fix                         1 all nvt temp 300 300 0.1
dump                        1 all custom 1 dump.fnn id type x y z fx fy fz

run                         1000
Neighbor list info ...
  update every 1 steps, delay 0 steps, check yes
  max neighbors/atom: 2000, page size: 100000
  master list distance cutoff = 7
  ghost atom cutoff = 7
  binsize = 3.5, bins = 8 8 8
  1 neighbor lists, perpetual/occasional/extra = 1 0 0
  (1) pair tensormd, perpetual
      attributes: full, newton on
      pair build: full/bin/atomonly
      stencil: full/bin/3d
      bin: standard
Per MPI rank memory allocation (min/avg/max) = 13.31 | 13.31 | 13.31 Mbytes
   Step          CPU            Temp          KinEng         PotEng         TotEng         Press          Volume          Pxx            Pyy            Pzz      
         0   0              300            39.669939     -13091.706     -13052.036      1567.8146      16604.795      1724.1383      1338.4669      1640.8387    
         1   0.004504332    299.73989      39.635544     -13091.672     -13052.037      1567.6857      16604.795      1723.9482      1338.4008      1640.708     
         2   0.009415947    298.96017      39.532438     -13091.569     -13052.036      1602.6146      16604.795      1759.5116      1373.0483      1675.284     
         3   0.014484828    297.66378      39.361013     -13091.397     -13052.036      1662.7985      16604.795      1820.1247      1433.4115      1734.8594    
         4   0.020508294    295.85627      39.122001     -13091.158     -13052.036      1746.3749      16604.795      1904.3163      1517.2585      1817.5498    
         5   0.025273964    293.54499      38.816373     -13090.852     -13052.036      1853.1673      16604.795      2012.0955      1624.1953      1923.2112    
         6   0.029748809    290.73935      38.445373     -13090.481     -13052.036      1983.3426      16604.795      2143.3804      1754.3701      2052.2772    
         7   0.0342483      287.45067      38.010501     -13090.045     -13052.035      2135.4411      16604.795      2296.6673      1906.8808      2202.7751    
         8   0.03909224     283.69222      37.51351      -13089.547     -13052.034      2308.5506      16604.795      2471.2205      2080.3204      2374.1108    
         9   0.044027542    279.47922      36.956411     -13088.989     -13052.032      2502.889       16604.795      2667.5806      2274.7415      2566.345     
        10   0.050282902    274.82863      36.341449     -13088.372     -13052.03       2716.7657      16604.795      2883.4065      2488.6178      2778.2727    
        11   0.055252539    269.75918      35.671101     -13087.699     -13052.028      2948.6893      16604.795      3117.5549      2721.1603      3007.3528    
        12   0.059310491    264.29125      34.948059     -13086.973     -13052.025      3199.4036      16604.795      3370.5825      2972.1779      3255.4506    
        13   0.063932547    258.44681      34.17523      -13086.196     -13052.021      3465.4457      16604.795      3639.0299      3238.4871      3518.8199    
        14   0.068718469    252.24934      33.35572      -13085.371     -13052.016      3747.3623      16604.795      3923.754       3521.0089      3797.3241    
        15   0.073185564    245.72367      32.492809     -13084.503     -13052.01       4043.0592      16604.795      4222.2457      3817.2226      4089.7092    
        16   0.079059255    238.89588      31.589949     -13083.593     -13052.003      4351.7123      16604.795      4533.6179      4126.9284      4394.5905    
        17   0.084940693    231.79321      30.650741     -13082.646     -13051.995      4670.7877      16604.795      4855.8614      4446.6302      4709.8716    
        18   0.089458579    224.44391      29.67892      -13081.665     -13051.986      5000.8787      16604.795      5188.8411      4777.7054      5036.0897    
        19   0.094509998    216.87718      28.678348     -13080.654     -13051.976      5339.3489      16604.795      5530.7547      5116.9744      5370.3178    
        20   0.099659051    209.12295      27.652982     -13079.617     -13051.964      5684.6136      16604.795      5879.5419      5463.2152      5711.0838    
        21   0.10456838     201.2118       26.606865     -13078.558     -13051.951      6035.9394      16604.795      6234.2449      5815.559       6058.0143    
        22   0.1110215      193.17479      25.544106     -13077.482     -13051.937      6390.3345      16604.795      6591.735       6171.5846      6407.684     
        23   0.11618094     185.04335      24.468861     -13076.391     -13051.922      6748.1049      16604.795      6953.1272      6530.4987      6760.6886    
        24   0.12065533     176.84912      23.385312     -13075.291     -13051.906      7107.453       16604.795      7315.8129      6891.2641      7115.2821    
        25   0.1253728      168.62375      22.297646     -13074.186     -13051.888      7466.3533      16604.795      7678.1677      7251.7951      7469.0971    
        26   0.13043165     160.39896      21.210056     -13073.079     -13051.869      7822.9922      16604.795      8038.1101      7609.9897      7820.8768    
        27   0.13550075     152.20616      20.126697     -13071.976     -13051.85       8177.1285      16604.795      8395.5041      7966.0258      8169.8556    
        28   0.14222424     144.07638      19.05167      -13070.881     -13051.829      8526.8705      16604.795      8748.3073      8317.7483      8514.556     
        29   0.14678062     136.04024      17.989026     -13069.797     -13051.808      8870.3533      16604.795      9094.9601      8662.9207      8853.1792    
        30   0.15124435     128.12772      16.94273      -13068.728     -13051.786      9207.3268      16604.795      9434.9069      9002.1659      9184.9077    
        31   0.15581651     120.36814      15.916655     -13067.68      -13051.763      9535.9398      16604.795      9766.357       9333.1956      9508.2668    
        32   0.16060191     112.78989      14.91456      -13066.655     -13051.74       9854.2542      16604.795      10087.234      9653.9149      9821.6134    
        33   0.16579927     105.42043      13.940073     -13065.657     -13051.717      10162.439      16604.795      10397.8        9964.2671      10125.251    
        34   0.17217062     98.286166      12.996687     -13064.69      -13051.694      10458.798      16604.795      10696.452      10262.924      10417.018    
        35   0.17696067     91.412415      12.08775      -13063.758     -13051.671      10741.913      16604.795      10981.609      10548.652      10695.477    
        36   0.1815008      84.823227      11.216441     -13062.864     -13051.648      11010.774      16604.795      11252.037      10820.322      10959.963    
        37   0.18612019     78.541354      10.385769     -13062.011     -13051.626      11265.351      16604.795      11508.294      11077.452      11210.307    
        38   0.19110637     72.588152      9.5985584     -13061.202     -13051.604      11504.653      16604.795      11749.212      11319.172      11445.576    
        39   0.19619021     66.983541      8.8574432     -13060.44      -13051.583      11726.968      16604.795      11972.797      11544.181      11663.926    
        40   0.20259886     61.746008      8.1648678     -13059.727     -13051.563      11932.471      16604.795      12179.1        11752.422      11865.892    
        41   0.20729848     56.8925        7.5230732     -13059.066     -13051.543      12119.851      16604.795      12366.965      11942.708      12049.88     
        42   0.21188212     52.43832       6.9340832     -13058.459     -13051.525      12289.212      16604.795      12536.477      12115.036      12216.122    
        43   0.21659006     48.397149      6.3997064     -13057.907     -13051.508      12439.684      16604.795      12686.91       12268.267      12363.875    
        44   0.22136819     44.781007      5.9215327     -13057.413     -13051.491      12571.37       16604.795      12818.392      12402.617      12493.102    
        45   0.22661148     41.600152      5.5009182     -13056.977     -13051.476      12683.285      16604.795      12929.797      12517.183      12602.875    
        46   0.23306881     38.863049      5.1389826     -13056.601     -13051.462      12775.247      16604.795      13020.718      12611.852      12693.17     
        47   0.23819718     36.576332      4.8366028     -13056.285     -13051.448      12847.872      16604.795      13091.948      12687.074      12764.595    
        48   0.24293957     34.744738      4.5944054     -13056.03      -13051.435      12900.425      16604.795      13142.734      12742.217      12816.325    
        49   0.2475874      33.371066      4.4127605     -13055.836     -13051.423      12933.326      16604.795      13173.781      12777.573      12848.624    
        50   0.25240323     32.456153      4.2917786     -13055.703     -13051.411      12946.367      16604.795      13184.627      12793.036      12861.439    
        51   0.25748585     31.998852      4.2313083     -13055.631     -13051.4        12939.583      16604.795      13175.216      12788.595      12854.938    
        52   0.26394648     31.996037      4.230936      -13055.62      -13051.389      12913.536      16604.795      13146.203      12764.815      12829.591    
        53   0.2685464      32.442613      4.2899881     -13055.668     -13051.378      12868.266      16604.795      13097.786      12721.729      12785.284    
        54   0.27316009     33.331563      4.4075369     -13055.775     -13051.367      12805.037      16604.795      13031.119      12660.734      12723.259    
        55   0.27765049     34.65399       4.5824055     -13055.938     -13051.356      12723.64       16604.795      12945.95       12581.439      12643.531    
        56   0.2823042      36.399173      4.8131766     -13056.157     -13051.344      12624.672      16604.795      12842.885      12484.481      12546.65     
        57   0.28748687     38.55466       5.0982033     -13056.43      -13051.332      12509.194      16604.795      12722.965      12371.114      12433.503    
        58   0.2939659      41.106357      5.4356222     -13056.755     -13051.319      12377.323      16604.795      12586.421      12240.955      12304.593    
        59   0.29905626     44.038627      5.8233655     -13057.129     -13051.306      12229.73       16604.795      12434.14       12094.714      12160.337    
        60   0.3039605      47.334424      6.2591789     -13057.551     -13051.291      12068.02       16604.795      12267.569      11934.301      12002.191    
        61   0.30850365     50.975365      6.7406319     -13058.017     -13051.276      11892.51       16604.795      12086.622      11760.292      11830.614    
        62   0.31363874     54.94182       7.2651287     -13058.525     -13051.26       11703.709      16604.795      11892.261      11573.179      11645.687    
        63   0.318899       59.213132      7.8299376     -13059.072     -13051.242      11503.333      16604.795      11686.193      11373.935      11449.871    
        64   0.32552818     63.767681      8.4321999     -13059.655     -13051.223      11292.714      16604.795      11469.434      11164.523      11244.184    
        65   0.33184623     68.58296       9.0689394     -13060.271     -13051.202      11072.301      16604.795      11242.636      10945.318      11028.948    
        66   0.33769525     73.635721      9.7370818     -13060.916     -13051.179      10842.874      16604.795      11006.95       10717.075      10804.596    
        67   0.34291895     78.902142      10.433477     -13061.589     -13051.155      10605.18       16604.795      10763.026      10480.302      10572.211    
        68   0.34991691     84.357895      11.154908     -13062.284     -13051.129      10361.995      16604.795      10513.268      10238.149      10334.569    
        69   0.35741855     89.978226      11.898102     -13062.999     -13051.101      10113.039      16604.795      10257.733      9989.8623      10091.522    
        70   0.36267664     95.738137      12.659753     -13063.731     -13051.071      9860.582       16604.795      9998.5598      9738.055       9845.1312    
        71   0.36843515     101.61248      13.436536     -13064.476     -13051.039      9604.3346      16604.795      9735.727       9482.315       9594.9618    
        72   0.37330276     107.57608      14.225122     -13065.23      -13051.005      9346.6922      16604.795      9471.1209      9225.068       9343.8877    
        73   0.37962171     113.60384      15.022191     -13065.991     -13050.969      9088.613       16604.795      9206.2995      8967.5105      9092.029     
        74   0.38696272     119.67079      15.824442     -13066.755     -13050.93       8830.7824      16604.795      8941.677       8710.4098      8840.2605    
        75   0.3914327      125.75227      16.628616     -13067.518     -13050.89       8574.211       16604.795      8678.5016      8453.9747      8590.1568    
        76   0.39613989     131.82404      17.431506     -13068.278     -13050.847      8320.8094      16604.795      8418.4223      8201.0995      8342.9064    
        77   0.40061005     137.86234      18.229968     -13069.032     -13050.802      8071.0276      16604.795      8162.0354      7951.4389      8099.6085    
        78   0.40564405     143.84402      19.020945     -13069.775     -13050.754      7825.9755      16604.795      7910.7106      7706.1706      7861.0453    
        79   0.41099794     149.74664      19.801466     -13070.506     -13050.705      7587.1832      16604.795      7665.7318      7467.1655      7628.6522    
        80   0.4171872      155.54852      20.568667     -13071.222     -13050.654      7355.1252      16604.795      7427.3464      7234.9345      7403.0948    
        81   0.42327869     161.22889      21.3198       -13071.92      -13050.6        7131.0341      16604.795      7197.5639      7010.6618      7184.8765    
        82   0.42817995     166.7679       22.052241     -13072.597     -13050.545      6915.151       16604.795      6975.7053      6794.3502      6975.3975    
        83   0.43325453     172.14672      22.763499     -13073.252     -13050.488      6709.0295      16604.795      6764.124       6587.8573      6775.1072    
        84   0.43812983     177.3476       23.451228     -13073.881     -13050.43       6512.969       16604.795      6562.5548      6391.8235      6584.5288    
        85   0.44400628     182.35403      24.113244     -13074.483     -13050.37       6327.8912      16604.795      6372.5763      6206.013       6405.0843    
        86   0.44946621     187.15069      24.747521     -13075.056     -13050.308      6155.1019      16604.795      6194.671       6032.5183      6238.1163    
        87   0.45379135     191.72348      25.352196     -13075.598     -13050.245      5993.7182      16604.795      6029.4528      5869.8354      6081.8664    
        88   0.45842649     196.05964      25.92558      -13076.107     -13050.181      5845.9095      16604.795      5877.4187      5721.3525      5938.9572    
        89   0.46318595     200.14772      26.466159     -13076.582     -13050.116      5710.887       16604.795      5738.5132      5585.1557      5808.992     
        90   0.4678736      203.97763      26.9726       -13077.023     -13050.05       5589.3689      16604.795      5613.3163      5462.4785      5692.3118    
        91   0.47370966     207.54066      27.44375      -13077.427     -13049.984      5482.4424      16604.795      5503.7052      5354.1358      5589.4862    
        92   0.47937724     210.82946      27.878639     -13077.795     -13049.916      5389.2108      16604.795      5407.6128      5259.4607      5500.5589    
        93   0.48375324     213.83814      28.276487     -13078.125     -13049.848      5309.6214      16604.795      5325.596       5178.3038      5424.9645    
        94   0.48848621     216.56216      28.636692     -13078.416     -13049.78       5244.4075      16604.795      5258.7831      5111.1751      5363.2643    
        95   0.49316891     218.99829      28.958829     -13078.67      -13049.711      5194.1594      16604.795      5206.4387      5059.2312      5316.8083    
        96   0.49815687     221.14474      29.24266      -13078.884     -13049.642      5158.712       16604.795      5170.1023      5022.1972      5283.8365    
        97   0.50369508     223.00101      29.488121     -13079.061     -13049.572      5136.3715      16604.795      5147.1323      4997.8282      5264.1539    
        98   0.50958754     224.56789      29.695315     -13079.198     -13049.503      5128.7345      16604.795      5138.9475      4987.6011      5259.6549    
        99   0.51424641     225.84755      29.864527     -13079.298     -13049.434      5134.2854      16604.795      5144.8359      4990.8396      5267.1807    
       100   0.51875579     226.8433       29.996199     -13079.361     -13049.364      5153.7379      16604.795      5164.97        5008.0634      5288.1804    
       101   0.52318108     227.55973      30.090935     -13079.386     -13049.295      5186.4857      16604.795      5198.2418      5038.3018      5322.9135    
       102   0.52795066     228.00249      30.149483     -13079.376     -13049.226      5231.0367      16604.795      5244.2602      5080.1927      5368.6573    
       103   0.53355199     228.17837      30.172739     -13079.33      -13049.157      5288.5899      16604.795      5303.7112      5134.8328      5427.2256    
       104   0.53978719     228.09525      30.161749     -13079.251     -13049.089      5357.4968      16604.795      5374.7637      5200.5961      5497.1305    
       105   0.54443556     227.76192      30.117672     -13079.138     -13049.021      5437.1613      16604.795      5456.4018      5277.437       5577.645     
       106   0.54922042     227.18811      30.041795     -13078.995     -13048.953      5527.4792      16604.795      5549.9285      5364.3589      5668.1502    
       107   0.55360782     226.38447      29.935526     -13078.821     -13048.886      5627.7643      16604.795      5653.8087      5461.6538      5767.8304    
       108   0.55832266     225.36238      29.800372     -13078.619     -13048.818      5736.8215      16604.795      5766.0262      5567.4105      5877.0278    
       109   0.56375905     224.1339       29.637927     -13078.39      -13048.752      5854.8626      16604.795      5888.1427      5682.4437      5994.0015    
       110   0.5700681      222.7118       29.449878     -13078.136     -13048.686      5980.2802      16604.795      6017.6512      5804.5202      6118.6691    
       111   0.5746567      221.10942      29.237991     -13077.858     -13048.62       6113.1752      16604.795      6155.044       5934.0924      6250.3891    
       112   0.57921164     219.34055      29.004088     -13077.559     -13048.555      6251.5604      16604.795      6298.6652      6068.7201      6387.2959    
       113   0.58341872     217.41936      28.750043     -13077.24      -13048.49       6395.827       16604.795      6447.6791      6209.9232      6529.8786    
       114   0.58815223     215.36039      28.477778     -13076.903     -13048.426      6544.3025      16604.795      6601.5093      6355.0635      6676.3348    
       115   0.59331135     213.17844      28.189252     -13076.551     -13048.362      6697.1834      16604.795      6760.2161      6504.2611      6827.0731    
       116   0.59979124     210.88842      27.886435     -13076.185     -13048.298      6853.0296      16604.795      6921.7718      6656.9631      6980.3541    
       117   0.60472321     208.50536      27.571316     -13075.807     -13048.235      7011.0676      16604.795      7085.6898      6811.4285      7136.0845    
       118   0.60945591     206.04434      27.245887     -13075.419     -13048.173      7170.3256      16604.795      7250.8756      6967.7288      7292.3725    
       119   0.6140628      203.52028      26.912123     -13075.023     -13048.111      7330.5592      16604.795      7417.3634      7125.2781      7449.036     
       120   0.61897064     200.94801      26.571984     -13074.621     -13048.049      7491.1256      16604.795      7584.0397      7282.7943      7606.543     
       121   0.62416153     198.3421       26.227396     -13074.215     -13047.988      7651.3446      16604.795      7750.8069      7439.787       7763.4399    
       122   0.6306393      195.71683      25.880249     -13073.807     -13047.927      7809.7406      16604.795      7915.1376      7595.5506      7918.5336    
       123   0.63525608     193.08611      25.53238      -13073.399     -13047.867      7966.9073      16604.795      8078.6414      7750.1242      8071.9563    
       124   0.64013901     190.46339      25.18557      -13072.992     -13047.806      8121.0974      16604.795      8239.2531      7901.8738      8222.1653    
       125   0.6446504      187.86165      24.841533     -13072.588     -13047.747      8272.4517      16604.795      8396.923       8050.9703      8369.4617    
       126   0.64943636     185.29328      24.50191      -13072.189     -13047.687      8419.3583      16604.795      8550.0324      8195.702       8512.3406    
       127   0.65469906     182.77012      24.168264     -13071.796     -13047.628      8562.3078      16604.795      8699.1924      8336.6533      8651.0778    
       128   0.66103966     180.30328      23.842067     -13071.411     -13047.569      8700.6816      16604.795      8843.5119      8473.0905      8785.4424    
       129   0.66584614     177.90316      23.524692     -13071.036     -13047.511      8833.5573      16604.795      8981.917       8604.9276      8913.8272    
       130   0.67051435     175.57942      23.217416     -13070.67      -13047.453      8961.0486      16604.795      9115.1413      8731.3507      9036.6539    
       131   0.67498701     173.3409       22.921409     -13070.316     -13047.395      9082.6574      16604.795      9242.1942      8851.5213      9154.2567    
       132   0.67965562     171.19567      22.637739     -13069.975     -13047.337      9198.0621      16604.795      9362.656       8966.4543      9265.0759    
       133   0.68497892     169.15097      22.367362     -13069.647     -13047.279      9306.8105      16604.795      9476.0391      9074.8625      9369.5299    
       134   0.69131719     167.21312      22.111114     -13069.333     -13047.222      9408.6984      16604.795      9582.2672      9176.4764      9467.3516    
       135   0.69630268     165.38755      21.869713     -13069.035     -13047.165      9503.654       16604.795      9681.729       9271.1709      9558.0623    
       136   0.70105551     163.67883      21.643764     -13068.752     -13047.108      9591.3507      16604.795      9773.4881      9359.0386      9641.5256    
       137   0.70549242     162.09067      21.433756     -13068.485     -13047.051      9671.3196      16604.795      9857.2345      9439.6351      9717.0893    
       138   0.71012154     160.6258       21.240053     -13068.234     -13046.994      9744.9577      16604.795      9933.9794      9514.5619      9786.3318    
       139   0.71532214     159.2862       21.062913     -13068         -13046.937      9810.4673      16604.795      10002.282      9581.2311      9847.8887    
       140   0.72170965     158.07289      20.902473     -13067.783     -13046.881      9869.8743      16604.795      10063.638      9642.0731      9903.9119    
       141   0.72643891     156.98598      20.758747     -13067.583     -13046.824      9921.4088      16604.795      10117.172      9695.4797      9951.5748    
       142   0.73118568     156.02485      20.631654     -13067.399     -13046.767      9966.087       16604.795      10163.349      9742.2925      9992.6192    
       143   0.73575736     155.1881       20.521008     -13067.231     -13046.71       10003.815      16604.795      10202.174      9782.6316      10026.641    
       144   0.74070684     154.47351      20.426516     -13067.08      -13046.654      10034.737      16604.795      10233.51       9816.3693      10054.333    
       145   0.74512281     153.8782       20.347796     -13066.945     -13046.597      10059.496      16604.795      10258.471      9844.122       10075.896    
       146   0.75142222     153.39852      20.284366     -13066.824     -13046.54       10078.186      16604.795      10276.279      9866.5214      10091.757    
       147   0.75641893     153.0302       20.235662     -13066.719     -13046.483      10090.774      16604.795      10287.798      9882.7503      10101.773    
       148   0.76109587     152.76842      20.201047     -13066.627     -13046.426      10097.671      16604.795      10293.547      9893.3112      10106.154    
       149   0.76572377     152.60781      20.179808     -13066.548     -13046.368      10100.015      16604.795      10294.142      9899.8001      10106.103    
       150   0.77042826     152.54251      20.171173     -13066.482     -13046.311      10097.317      16604.795      10289.017      9901.6733      10101.262    
       151   0.77537079     152.56625      20.174312     -13066.427     -13046.253      10090.911      16604.795      10279.445      9900.0685      10093.221    
       152   0.7815208      152.67236      20.188344     -13066.384     -13046.195      10080.016      16604.795      10265.497      9894.2948      10080.255    
       153   0.78686449     152.85389      20.212349     -13066.349     -13046.137      10065.834      16604.795      10247.292      9885.4278      10064.783    
       154   0.79135258     153.10365      20.245374     -13066.324     -13046.079      10048.482      16604.795      10225.824      9873.6595      10045.963    
       155   0.79616684     153.41425      20.286446     -13066.307     -13046.02       10028.348      16604.795      10200.76       9859.61        10024.674    
       156   0.80108012     153.77822      20.334575     -13066.296     -13045.961      10005.685      16604.795      10172.614      9843.0766      10001.365    
       157   0.80605833     154.18802      20.388764     -13066.291     -13045.902      9982.4719      16604.795      10143.774      9825.9506      9977.6913    
       158   0.81228923     154.63608      20.448013     -13066.291     -13045.843      9957.5197      16604.795      10112.714      9807.3858      9952.4587    
       159   0.8172688      155.11494      20.511333     -13066.294     -13045.783      9931.5757      16604.795      10080.045      9788.6004      9926.0813    
       160   0.82186546     155.6172       20.57775      -13066.301     -13045.723      9905.1394      16604.795      10046.554      9768.9252      9899.9387    
       161   0.82642869     156.13572      20.646315     -13066.309     -13045.663      9879.3878      16604.795      10013.547      9749.909       9874.7072    
       162   0.83132148     156.6636       20.716119     -13066.319     -13045.603      9854.2568      16604.795      9980.307       9732.0379      9850.4256    
       163   0.83639187     157.19421      20.786282     -13066.328     -13045.542      9829.7071      16604.795      9947.7779      9715.1472      9826.1962    
       164   0.84274453     157.72127      20.855977     -13066.337     -13045.481      9806.3939      16604.795      9916.1106      9699.0871      9803.984     
       165   0.84773042     158.23891      20.924426     -13066.344     -13045.42       9784.4571      16604.795      9885.0843      9684.6718      9783.6154    
       166   0.85221656     158.7416       20.990898     -13066.349     -13045.358      9764.5294      16604.795      9856.0766      9672.5709      9764.9406    
       167   0.85661705     159.22431      21.054728     -13066.351     -13045.297      9747.3859      16604.795      9829.7008      9663.1761      9749.281     
       168   0.86113052     159.68262      21.115333     -13066.35      -13045.235      9732.5387      16604.795      9804.9966      9656.5995      9736.0201    
       169   0.8658312      160.11258      21.172187     -13066.345     -13045.173      9720.3465      16604.795      9783.3119      9652.01        9725.7178    
       170   0.87193137     160.51076      21.224839     -13066.335     -13045.11       9711.0943      16604.795      9763.7287      9650.6875      9718.8667    
       171   0.87723295     160.87435      21.272919     -13066.321     -13045.048      9705.3656      16604.795      9747.6128      9653.1048      9715.3792    
       172   0.88177342     161.20119      21.316138     -13066.301     -13044.985      9703.0992      16604.795      9735.347       9658.2774      9715.6731    
       173   0.88673945     161.48971      21.354289     -13066.277     -13044.923      9703.2184      16604.795      9725.0048      9666.4634      9718.1869    
       174   0.89151872     161.73887      21.387237     -13066.247     -13044.86       9706.8822      16604.795      9718.116       9678.2232      9724.3074    
       175   0.8963982      161.94837      21.414939     -13066.212     -13044.797      9715.4167      16604.795      9716.0406      9694.8093      9735.4002    
       176   0.90258091     162.11851      21.437438     -13066.171     -13044.734      9726.3308      16604.795      9716.1923      9713.2955      9749.5047    
       177   0.90803481     162.25019      21.45485      -13066.125     -13044.67       9740.8905      16604.795      9720.2425      9735.252       9767.1771    
       178   0.91268237     162.34492      21.467377     -13066.074     -13044.607      9759.0902      16604.795      9727.7753      9761.0332      9788.462     
       179   0.91728937     162.40479      21.475293     -13066.019     -13044.544      9780.1663      16604.795      9738.2597      9789.6916      9812.5474    
       180   0.9218956      162.43247      21.478953     -13065.959     -13044.48       9804.3288      16604.795      9752.1852      9820.7697      9840.0315    
       181   0.92646275     162.43119      21.478784     -13065.896     -13044.417      9831.2365      16604.795      9768.854       9854.5441      9870.3113    
       182   0.93274995     162.4047       21.475282     -13065.829     -13044.353      9861.3155      16604.795      9788.9061      9891.3125      9903.728     
       183   0.93783257     162.35723      21.469004     -13065.759     -13044.29       9893.652       16604.795      9811.3711      9930.0591      9939.5257    
       184   0.94251875     162.29344      21.460569     -13065.687     -13044.226      9928.766       16604.795      9837.087       9971.3801      9977.831     
       185   0.94739963     162.21844      21.450652     -13065.613     -13044.162      9964.6567      16604.795      9863.6739      10013.356      10016.94     
       186   0.95222807     162.13772      21.439979     -13065.539     -13044.099      10002.476      16604.795      9892.5666      10056.602      10058.26     
       187   0.95677863     162.0571       21.429317     -13065.464     -13044.035      10041.444      16604.795      9922.8585      10100.933      10100.54     
       188   0.96271151     161.98262      21.419469     -13065.391     -13043.971      10081.713      16604.795      9954.6474      10146.486      10144.006    
       189   0.9679797      161.9206       21.411268     -13065.319     -13043.908      10122.561      16604.795      9987.6438      10192.08       10187.96     
       190   0.97256927     161.87751      21.405569     -13065.249     -13043.844      10163.631      16604.795      10021.565      10237.187      10232.141    
       191   0.97730698     161.85995      21.403247     -13065.183     -13043.78       10204.478      16604.795      10054.944      10282.25       10276.24     
       192   0.98180382     161.87463      21.405189     -13065.121     -13043.716      10244.311      16604.795      10088.102      10325.522      10319.31     
       193   0.98651673     161.92826      21.41228      -13065.064     -13043.652      10283.662      16604.795      10121.491      10368.259      10361.235    
       194   0.99153785     162.02749      21.425402     -13065.013     -13043.588      10322.088      16604.795      10154.499      10409.711      10402.055    
       195   0.99771567     162.1789       21.445423     -13064.969     -13043.523      10357.917      16604.795      10185.299      10447.196      10441.254    
       196   1.002641       162.38891      21.473193     -13064.932     -13043.459      10392.482      16604.795      10215.573      10483.852      10478.02     
       197   1.0071961      162.66376      21.509538     -13064.904     -13043.394      10424.349      16604.795      10243.516      10517.496      10512.035    
       198   1.011939       163.00938      21.555241     -13064.885     -13043.329      10453.258      16604.795      10269.622      10547.094      10543.056    
       199   1.0168777      163.43141      21.611047     -13064.875     -13043.264      10479.111      16604.795      10292.805      10573.701      10570.827    
       200   1.0214561      163.93512      21.677653     -13064.877     -13043.199      10502.311      16604.795      10314.465      10596.776      10595.693    
       201   1.0272697      164.52535      21.755701     -13064.889     -13043.134      10520.687      16604.795      10331.256      10614.984      10615.82     
       202   1.0326958      165.20651      21.845773     -13064.914     -13043.068      10535.794      16604.795      10345.406      10628.971      10633.005    
       203   1.0372493      165.98245      21.948378     -13064.95      -13043.002      10546.581      16604.795      10356.088      10638.635      10645.019    
       204   1.0422163      166.8565       22.063957     -13064.999     -13042.935      10552.5        16604.795      10362.842      10642.921      10651.736    
       205   1.0468537      167.83141      22.192873     -13065.061     -13042.868      10554.192      16604.795      10365.626      10642.385      10654.566    
       206   1.0515048      168.90928      22.335402     -13065.136     -13042.801      10551.079      16604.795      10364.183      10636.922      10652.132    
       207   1.056689       170.09153      22.491735     -13065.225     -13042.733      10543.162      16604.795      10358.05       10626.382      10645.054    
       208   1.062832       171.37889      22.661967     -13065.327     -13042.665      10530.392      16604.795      10348.258      10609.725      10633.193    
       209   1.0673497      172.77143      22.846107     -13065.443     -13042.597      10511.952      16604.795      10333.091      10587.869      10614.895    
       210   1.071928       174.26847      23.044065     -13065.571     -13042.527      10489.09       16604.795      10313.993      10560.9        10592.377    
       211   1.0762905      175.86854      23.255648     -13065.713     -13042.458      10461.07       16604.795      10290.348      10528.116      10564.744    
       212   1.080935       177.56954      23.480576     -13065.868     -13042.387      10427.456      16604.795      10261.57       10489.794      10531.004    
       213   1.0860137      179.3685       23.718458     -13066.035     -13042.316      10389.227      16604.795      10228.814      10446.152      10492.716    
       214   1.0922712      181.2617       23.968802     -13066.214     -13042.245      10346.583      16604.795      10191.859      10397.982      10449.909    
       215   1.0975306      183.24475      24.231027     -13066.404     -13042.173      10298.469      16604.795      10150.393      10343.703      10401.311    
       216   1.1023646      185.31249      24.50445      -13066.604     -13042.1        10245.807      16604.795      10104.274      10285.055      10348.093    
       217   1.1072942      187.45902      24.788293     -13066.815     -13042.026      10189.57       16604.795      10054.604      10222.954      10291.153    
       218   1.1126133      189.67782      25.081691     -13067.034     -13041.952      10128.923      16604.795      10000.959      10155.813      10229.998    
       219   1.1177312      191.96164      25.383689     -13067.261     -13041.878      10064.303      16604.795      9944.1758      10084.35       10164.384    
       220   1.1240091      194.3026       25.69324      -13067.495     -13041.802      9996.5846      16604.795      9884.3203      10009.346      10096.087    
       221   1.1293305      196.69227      26.009235     -13067.735     -13041.726      9925.7104      16604.795      9821.0215      9931.8446      10024.265    
       222   1.134076       199.12173      26.330489     -13067.98      -13041.649      9851.6781      16604.795      9755.3869      9850.6306      9949.017     
       223   1.1391234      201.58146      26.655747     -13068.227     -13041.572      9776.2229      16604.795      9687.9243      9767.9218      9872.8226    
       224   1.1442231      204.06155      26.983697     -13068.477     -13041.494      9697.993       16604.795      9617.9305      9682.4483      9793.6002    
       225   1.1490835      206.5517       27.312977     -13068.728     -13041.415      9619.0558      16604.795      9547.3086      9596.3427      9713.5161    
       226   1.1549837      209.04119      27.64217      -13068.978     -13041.336      9538.4122      16604.795      9475.5306      9508.1539      9631.5521    
       227   1.1607435      211.51909      27.969831     -13069.226     -13041.256      9458.1044      16604.795      9403.4171      9420.7313      9550.1648    
       228   1.1655184      213.97429      28.29449      -13069.47      -13041.175      9377.9292      16604.795      9331.3624      9333.4626      9468.9626    
       229   1.1703256      216.39552      28.614657     -13069.709     -13041.094      9297.0937      16604.795      9258.8945      9245.7556      9386.631     
       230   1.1749138      218.77144      28.928832     -13069.942     -13041.013      9218.6187      16604.795      9188.3996      9160.3552      9307.1014    
       231   1.1794363      221.09065      29.235508     -13070.167     -13040.931      9141.5112      16604.795      9119.4256      9076.5975      9228.5104    
       232   1.1847755      223.34185      29.533192     -13070.382     -13040.849      9066.5868      16604.795      9052.1933      8995.5389      9152.028     
       233   1.1908486      225.51389      29.820407     -13070.587     -13040.767      8993.9264      16604.795      8986.9045      8916.6379      9078.2367    
       234   1.1953862      227.59576      30.095699     -13070.78      -13040.684      8924.1895      16604.795      8924.2745      8841.0472      9007.247     
       235   1.2004319      229.57679      30.357657     -13070.958     -13040.601      8858.3394      16604.795      8865.4709      8769.6664      8939.881     
       236   1.2051996      231.44667      30.604917     -13071.122     -13040.517      8797.2974      16604.795      8810.9029      8703.5339      8877.4554    
       237   1.2101001      233.19539      30.836156     -13071.27      -13040.434      8740.8875      16604.795      8760.737       8641.9904      8819.9352    
       238   1.2154974      234.8135       31.050124     -13071.401     -13040.351      8689.4889      16604.795      8715.3949      8586.164       8766.9078    
       239   1.221908       236.29204      31.245635     -13071.513     -13040.267      8643.7193      16604.795      8675.1461      8536.1265      8719.8853    
       240   1.2266468      237.62258      31.421577     -13071.605     -13040.183      8603.9391      16604.795      8640.3839      8492.6641      8678.7692    
       241   1.2316189      238.79748      31.576938     -13071.677     -13040.1        8570.4054      16604.795      8611.701       8455.8386      8643.6767    
       242   1.236273       239.80965      31.71078      -13071.727     -13040.017      8543.9213      16604.795      8589.1999      8426.4204      8616.1435    
       243   1.2411306      240.65272      31.822262     -13071.756     -13039.933      8525.2217      16604.795      8574.5324      8405.0118      8596.1209    
       244   1.2459324      241.32128      31.910668     -13071.761     -13039.85       8513.3062      16604.795      8566.0888      8391.3459      8582.484     
       245   1.2518645      241.81067      31.975382     -13071.743     -13039.767      8509.6694      16604.795      8565.2538      8386.133       8577.6214    
       246   1.256997       242.117        32.015889     -13071.701     -13039.685      8513.7105      16604.795      8571.509       8389.0105      8580.6121    
       247   1.2613298      242.23731      32.031797     -13071.635     -13039.603      8525.815       16604.795      8586.0152      8400.5755      8590.8541    
       248   1.266068       242.16956      32.022838     -13071.544     -13039.521      8546.6768      16604.795      8607.9423      8421.1163      8610.972     
       249   1.2705433      241.91266      31.988868     -13071.428     -13039.44       8575.6709      16604.795      8638.0725      8450.5586      8638.3815    
       250   1.2753007      241.46644      31.929863     -13071.288     -13039.359      8613.8621      16604.795      8676.6683      8489.3058      8675.6121    
       251   1.2807848      240.8317       31.845929     -13071.124     -13039.278      8659.4474      16604.795      8722.2371      8536.4311      8719.674     
       252   1.2868282      240.01021      31.737301     -13070.935     -13039.198      8714.7949      16604.795      8777.0994      8593.308       8773.9774    
       253   1.2915625      239.0046       31.604326     -13070.723     -13039.119      8778.1805      16604.795      8839.1434      8659.0132      8836.3848    
       254   1.2965248      237.81854      31.44749      -13070.487     -13039.04       8849.7234      16604.795      8909.4819      8733.278       8906.4103    
       255   1.3014919      236.45654      31.267388     -13070.229     -13038.961      8929.986       16604.795      8988.038       8816.2137      8985.7062    
       256   1.3067428      234.9241       31.064749     -13069.948     -13038.883      9016.9309      16604.795      9072.6319      8906.8132      9071.3476    
       257   1.3119563      233.22767      30.840424     -13069.647     -13038.806      9112.2478      16604.795      9165.3462      9005.4426      9165.9546    
       258   1.318308       231.37445      30.595368     -13069.325     -13038.729      9215.5395      16604.795      9265.1905      9113.1158      9268.3121    
       259   1.3229404      229.37257      30.330653     -13068.984     -13038.653      9325.0605      16604.795      9371.3069      9227.0265      9376.848     
       260   1.3274677      227.23089      30.047452     -13068.625     -13038.578      9441.196       16604.795      9483.3817      9348.0647      9492.1416    
       261   1.3323551      224.95916      29.747053     -13068.25      -13038.503      9563.1208      16604.795      9601.0549      9475.3651      9612.9425    
       262   1.3370223      222.56774      29.430829     -13067.86      -13038.429      9692.1167      16604.795      9725.4817      9609.2809      9741.5875    
       263   1.3422659      220.06765      29.100234     -13067.455     -13038.355      9825.5575      16604.795      9854.2426      9748.3249      9874.1049    
       264   1.3504759      217.47064      28.756823     -13067.039     -13038.282      9964.1785      16604.795      9987.0925      9893.2634      10012.18     
       265   1.355207       214.78898      28.402219     -13066.612     -13038.209      10106.732      16604.795      10124.1        10041.77       10154.325    
       266   1.3598875      212.03542      28.038107     -13066.176     -13038.138      10252.766      16604.795      10265.027      10193.51       10299.76     
       267   1.3643378      209.22321      27.66624      -13065.732     -13038.066      10401.88       16604.795      10408.616      10348.885      10448.139    
       268   1.369035       206.366        27.288422     -13065.284     -13037.995      10553.265      16604.795      10553.553      10506.726      10599.516    
       269   1.37378        203.47772      26.906496     -13064.832     -13037.925      10706.32       16604.795      10700.012      10666.794      10752.155    
       270   1.3798275      200.57258      26.522339     -13064.378     -13037.856      10861.152      16604.795      10848.803      10828.191      10906.462    
       271   1.3849221      197.66499      26.13786      -13063.924     -13037.786      11016.595      16604.795      10998.129      10990.107      11061.549    
       272   1.389508       194.76948      25.754978     -13063.473     -13037.718      11171.001      16604.795      11145.828      11151.545      11215.63     
       273   1.3943243      191.90062      25.375619     -13063.025     -13037.65       11325.15       16604.795      11293.832      11311.911      11369.707    
       274   1.3991852      189.073        25.001715     -13062.584     -13037.582      11477.664      16604.795      11440.165      11471.09       11521.737    
       275   1.4040761      186.30108      24.635174     -13062.15      -13037.515      11627.734      16604.795      11583.792      11627.795      11671.616    
       276   1.4099873      183.59909      24.277882     -13061.726     -13037.448      11775.596      16604.795      11725.326      11781.819      11819.644    
       277   1.4156811      180.98114      23.931702     -13061.313     -13037.382      11920.295      16604.795      11864.12       11932.754      11964.012    
       278   1.4203477      178.46098      23.598453     -13060.914     -13037.316      12060.975      16604.795      11998.433      12079.848      12104.643    
       279   1.4252276      176.05197      23.279903     -13060.53      -13037.25       12196.655      16604.795      12128.303      12221.578      12240.085    
       280   1.42987        173.76705      22.97776      -13060.163     -13037.185      12327.821      16604.795      12253.771      12358.505      12371.189    
       281   1.4347515      171.61861      22.693666     -13059.813     -13037.12       12452.161      16604.795      12372.55       12488.458      12495.474    
       282   1.4402987      169.61847      22.429181     -13059.484     -13037.055      12571.456      16604.795      12486.5        12612.982      12614.885    
       283   1.4464348      167.77783      22.185787     -13059.176     -13036.99       12683.807      16604.795      12593.358      12731.158      12726.905    
       284   1.451043       166.10723      21.964878     -13058.891     -13036.926      12789.044      16604.795      12693.849      12840.913      12832.369    
       285   1.4558233      164.61635      21.767735     -13058.629     -13036.862      12886.315      16604.795      12786.679      12942.921      12929.344    
       286   1.4604625      163.31411      21.595536     -13058.393     -13036.797      12976.15       16604.795      12872.217      13037.197      13019.035    
       287   1.4654052      162.20857      21.449347     -13058.182     -13036.733      13057.346      16604.795      12949.475      13122.347      13100.216    
       288   1.47065        161.30694      21.330121     -13057.999     -13036.669      13130.322      16604.795      13018.775      13198.842      13173.35     
       289   1.4769747      160.61543      21.238681     -13057.843     -13036.604      13193.808      16604.795      13078.738      13265.882      13236.803    
       290   1.4816527      160.13922      21.17571      -13057.715     -13036.54       13248.702      16604.795      13131.273      13323.757      13291.076    
       291   1.4862216      159.88257      21.141772     -13057.616     -13036.475      13294.848      16604.795      13174.746      13373.045      13336.753    
       292   1.4910391      159.84869      21.137292     -13057.547     -13036.41       13330.352      16604.795      13208.068      13410.719      13372.268    
       293   1.4959144      160.03963      21.162542     -13057.507     -13036.344      13356.334      16604.795      13232.355      13438.69       13397.956    
       294   1.5008514      160.45643      21.217655     -13057.496     -13036.278      13373.138      16604.795      13247.734      13457.184      13414.497    
       295   1.5069744      161.09898      21.302621     -13057.514     -13036.212      13380.14       16604.795      13253.819      13465.141      13421.458    
       296   1.512355       161.96611      21.417286     -13057.562     -13036.145      13377.608      16604.795      13250.582      13463.518      13418.725    
       297   1.5168216      163.05559      21.561351     -13057.639     -13036.077      13365.668      16604.795      13238.627      13452.237      13406.139    
       298   1.5213364      164.364        21.734366     -13057.743     -13036.009      13343.418      16604.795      13216.337      13430.231      13383.685    
       299   1.5258484      165.8869       21.935743     -13057.876     -13035.94       13313.175      16604.795      13186.672      13399.515      13353.338    
       300   1.5305258      167.61878      22.164755     -13058.035     -13035.87       13273.229      16604.795      13147.92       13359.167      13312.6      
       301   1.5359433      169.55307      22.420533     -13058.22      -13035.8        13224.438      16604.795      13100.648      13309.246      13263.422    
       302   1.5425449      171.68214      22.702066     -13058.43      -13035.728      13167.402      16604.795      13045.012      13250.98       13206.216    
       303   1.5472089      173.99745      23.008228     -13058.664     -13035.656      13102.649      16604.795      12982.844      13184.559      13140.545    
       304   1.5520541      176.48953      23.337762     -13058.92      -13035.582      13029.765      16604.795      12912.381      13109.991      13066.924    
       305   1.5566258      179.1479       23.689287     -13059.197     -13035.508      12949.604      16604.795      12835.207      13027.143      12986.46     
       306   1.5616865      181.96136      24.061319     -13059.494     -13035.433      12862.684      16604.795      12751.741      12937.525      12898.786    
       307   1.5669776      184.91785      24.452266     -13059.808     -13035.356      12769.452      16604.795      12661.71       12841.498      12805.148    
       308   1.5732333      188.0046       24.860437     -13060.139     -13035.279      12670.239      16604.795      12566.769      12738.792      12705.155    
       309   1.5778508      191.20822      25.284061     -13060.484     -13035.2        12565.729      16604.795      12466.42       12630.667      12600.1      
       310   1.5823782      194.51465      25.721281     -13060.842     -13035.12       12456.549      16604.795      12361.778      12517.65       12490.218    
       311   1.5870608      197.90933      26.17017      -13061.21      -13035.04       12342.889      16604.795      12252.979      12399.855      12375.833    
       312   1.591768       201.3773       26.62875      -13061.587     -13034.958      12226.7        16604.795      12141.855      12278.998      12259.248    
       313   1.5963076      204.90323      27.094995     -13061.97      -13034.875      12107.624      16604.795      12027.839      12155.66       12139.374    
       314   1.6028506      208.47147      27.566834     -13062.358     -13034.791      11985.666      16604.795      11911.711      12028.812      12016.476    
       315   1.6085479      212.06617      28.042173     -13062.748     -13034.706      11862.688      16604.795      11794.17       11900.681      11893.214    
       316   1.6130164      215.6714       28.518904     -13063.139     -13034.62       11738.326      16604.795      11675.937      11770.994      11768.047    
       317   1.6178647      219.27118      28.994913     -13063.529     -13034.534      11614.254      16604.795      11557.83       11641.806      11643.127    
       318   1.6225523      222.84958      29.468097     -13063.914     -13034.446      11490.097      16604.795      11439.987      11512.27       11518.033    
       319   1.6272556      226.39082      29.936367     -13064.294     -13034.358      11368.039      16604.795      11324.244      11384.913      11394.961    
       320   1.6330474      229.87935      30.397665     -13064.667     -13034.269      11247.335      16604.795      11210.221      11258.32       11273.465    
       321   1.6390478      233.29987      30.849972     -13065.029     -13034.179      11128.906      16604.795      11098.324      11134.411      11153.984    
       322   1.6437059      236.63756      31.291325     -13065.38      -13034.089      11014.673      16604.795      10990.664      11014.353      11039.001    
       323   1.648292       239.87805      31.719825     -13065.718     -13033.998      10903.225      16604.795      10885.202      10897.69       10926.783    
       324   1.652696       243.00741      32.13363      -13066.041     -13033.907      10796.23       16604.795      10785.191      10784.868      10818.631    
       325   1.6572655      246.01249      32.531001     -13066.346     -13033.815      10694.069      16604.795      10689.758      10677.083      10715.365    
       326   1.6623424      248.88068      32.910271     -13066.634     -13033.724      10597.827      16604.795      10599.65       10575.41       10618.422    
       327   1.6688211      251.60022      33.269884     -13066.901     -13033.631      10507.731      16604.795      10515.554      10480.106      10527.534    
       328   1.6736074      254.16014      33.60839      -13067.148     -13033.539      10423.385      16604.795      10437.395      10390.484      10442.277    
       329   1.6783547      256.55022      33.924439     -13067.372     -13033.447      10346.521      16604.795      10366.202      10309.082      10364.279    
       330   1.6830078      258.76127      34.216812     -13067.572     -13033.355      10277.5        16604.795      10302.534      10235.378      10294.588    
       331   1.6878282      260.78504      34.484421     -13067.747     -13033.263      10215.944      16604.795      10246.786      10169.42       10231.626    
       332   1.6926085      262.61423      34.726301     -13067.897     -13033.171      10162.149      16604.795      10198.294      10111.198      10176.956    
       333   1.6988609      264.24257      34.941621     -13068.021     -13033.08       10117.001      16604.795      10157.901      10061.921      10131.183    
       334   1.7044534      265.66487      35.129697     -13068.118     -13032.988      10080.206      16604.795      10125.794      10021.565      10093.259    
       335   1.7090663      266.87696      35.289976     -13068.188     -13032.898      10052.904      16604.795      10102.824      9990.7039      10065.184    
       336   1.7137129      267.8758       35.422055     -13068.229     -13032.807      10034.363      16604.795      10088.359      9969.2001      10045.53     
       337   1.7184043      268.65949      35.525685     -13068.243     -13032.717      10024.765      16604.795      10082.468      9956.6257      10035.2      
       338   1.7228758      269.22712      35.600744     -13068.229     -13032.628      10025.045      16604.795      10085.547      9954.7921      10034.795    
       339   1.7285451      269.57885      35.647254     -13068.187     -13032.539      10033.594      16604.795      10096.968      9961.2741      10042.541    
       340   1.7343423      269.71599      35.665389     -13068.117     -13032.451      10051.754      16604.795      10117.464      9977.7521      10060.048    
       341   1.7388508      269.64092      35.655463     -13068.019     -13032.364      10078.547      16604.795      10146.57       10003.044      10086.029    
       342   1.7438582      269.357        35.617919     -13067.895     -13032.277      10114.087      16604.795      10183.411      10037.562      10121.287    
       343   1.7485364      268.86867      35.553346     -13067.745     -13032.191      10159.199      16604.795      10229.389      10082.446      10165.763    
       344   1.7533618      268.18131      35.462454     -13067.569     -13032.106      10213.799      16604.795      10284.665      10136.738      10219.993    
       345   1.7586893      267.30122      35.346077     -13067.368     -13032.022      10274.79       16604.795      10345.883      10198.2        10280.287    
       346   1.7650386      266.23569      35.205178     -13067.144     -13031.938      10344.826      16604.795      10415.257      10269.232      10349.991    
       347   1.7698764      264.99277      35.040823     -13066.896     -13031.856      10422.728      16604.795      10492.232      10348.212      10427.738    
       348   1.7748623      263.5813       34.85418      -13066.628     -13031.774      10506.948      16604.795      10575.124      10433.884      10511.836    
       349   1.7793881      262.011        34.646534     -13066.339     -13031.692      10599.134      16604.795      10665.407      10527.807      10604.187    
       350   1.7840135      260.29223      34.419256     -13066.031     -13031.612      10697.051      16604.795      10760.838      10627.998      10702.316    
       351   1.7890296      258.43602      34.173804     -13065.706     -13031.532      10801.807      16604.795      10862.883      10735.382      10807.154    
       352   1.795235       256.45397      33.911711     -13065.365     -13031.453      10911.754      16604.795      10969.183      10848.492      10917.586    
       353   1.8001751      254.35818      33.634578     -13065.009     -13031.375      11027.075      16604.795      11080.954      10966.981      11033.289    
       354   1.8047517      252.16124      33.34407      -13064.641     -13031.297      11146.566      16604.795      11196.224      11090.105      11153.368    
       355   1.8094422      249.87612      33.0419       -13064.262     -13031.22       11270.139      16604.795      11315.15       11217.741      11277.524    
       356   1.8142824      247.51606      32.729824     -13063.874     -13031.144      11397.669      16604.795      11437.591      11349.262      11406.154    
       357   1.8192137      245.09467      32.409636     -13063.478     -13031.068      11527.478      16604.795      11561.755      11483.876      11536.802    
       358   1.8251467      242.6257       32.083156     -13063.076     -13030.993      11660.331      16604.795      11688.809      11621.32       11670.863    
       359   1.8309894      240.12305      31.752222     -13062.671     -13030.919      11793.543      16604.795      11815.778      11759.484      11805.368    
       360   1.8356256      237.60065      31.418678     -13062.263     -13030.845      11928.553      16604.795      11943.873      11900.252      11941.535    
       361   1.8403702      235.07243      31.084363     -13061.856     -13030.771      12064.77       16604.795      12073.565      12041.579      12079.166    
       362   1.8452981      232.55222      30.751107     -13061.449     -13030.698      12199.882      16604.795      12201.318      12182.297      12216.03     
       363   1.8499867      230.05366      30.420715     -13061.046     -13030.625      12335.021      16604.795      12329.436      12322.835      12352.792    
       364   1.8552208      227.59029      30.094977     -13060.648     -13030.553      12468.816      16604.795      12455.633      12462.515      12488.299    
       365   1.8614025      225.17537      29.775643     -13060.257     -13030.481      12600.56       16604.795      12579.269      12600.142      12622.27     
       366   1.865953       222.82172      29.464413     -13059.874     -13030.409      12730.484      16604.795      12700.969      12736.756      12753.726    
       367   1.8705965      220.54182      29.162934     -13059.501     -13030.338      12857.143      16604.795      12819.346      12868.923      12883.16     
       368   1.8749965      218.34765      28.872793     -13059.139     -13030.266      12980.581      16604.795      12934.627      12998.546      13008.571    
       369   1.8794196      216.25073      28.595511     -13058.791     -13030.195      13100.237      16604.795      13045.624      13124.227      13130.858    
       370   1.883942       214.26202      28.332537     -13058.457     -13030.124      13215.869      16604.795      13153.271      13245.535      13248.8      
       371   1.8900426      212.39181      28.085234     -13058.139     -13030.053      13326.449      16604.795      13254.968      13362.573      13361.806    
       372   1.8953745      210.64974      27.854874     -13057.837     -13029.983      13431.854      16604.795      13352.168      13473.703      13469.69     
       373   1.899948       209.04476      27.642643     -13057.554     -13029.912      13531.638      16604.795      13443.539      13579.399      13571.976    
       374   1.9049854      207.58504      27.449619     -13057.29      -13029.841      13625.244      16604.795      13528.854      13678.453      13668.423    
       375   1.9100319      206.27794      27.276778     -13057.046     -13029.77       13713.549      16604.795      13608.673      13772.612      13759.363    
       376   1.9147525      205.13002      27.124984     -13056.824     -13029.699      13795.386      16604.795      13682.411      13859.451      13844.296    
       377   1.9207648      204.14698      26.994994     -13056.622     -13029.627      13870.088      16604.795      13749.095      13939.517      13921.651    
       378   1.9265895      203.33371      26.887452     -13056.443     -13029.556      13937.649      16604.795      13808.671      14012.022      13992.254    
       379   1.93122        202.69412      26.802878     -13056.287     -13029.484      13997.993      16604.795      13861.616      14076.505      14055.857    
       380   1.9361111      202.23117      26.74166      -13056.153     -13029.412      14051.575      16604.795      13907.953      14134.73       14112.041    
       381   1.9407005      201.94694      26.704076     -13056.043     -13029.339      14098.093      16604.795      13947.21       14185.269      14161.798    
       382   1.9455702      201.84259      26.690277     -13055.957     -13029.266      14137.087      16604.795      13979.206      14228.039      14204.016    
       383   1.9509518      201.91833      26.700293     -13055.893     -13029.193      14168.149      16604.795      14003.817      14262.437      14238.193    
       384   1.957087       202.17344      26.734026     -13055.853     -13029.119      14192.74       16604.795      14022.307      14290.594      14265.32     
       385   1.961753       202.60627      26.791261     -13055.836     -13029.045      14209.473      16604.795      14033.168      14309.939      14285.313    
       386   1.9667062      203.21422      26.871652     -13055.842     -13028.97       14218.257      16604.795      14036.642      14321.263      14296.865    
       387   1.9713667      203.99381      26.97474      -13055.87      -13028.895      14220.343      16604.795      14033.543      14325.268      14302.217    
       388   1.976341       204.94075      27.099956     -13055.919     -13028.819      14216.014      16604.795      14024.602      14322.409      14301.031    
       389   1.981638       206.04979      27.246609     -13055.989     -13028.742      14204.68       16604.795      14009.311      14312.423      14292.306    
       390   1.9880209      207.31488      27.413895     -13056.079     -13028.665      14186.723      16604.795      13987.585      14295.266      14277.317    
       391   1.992874       208.72925      27.600921     -13056.188     -13028.587      14162.251      16604.795      13959.629      14271.286      14255.838    
       392   1.9977113      210.28537      27.806692     -13056.315     -13028.508      14131.461      16604.795      13925.778      14240.491      14228.114    
       393   2.0024216      211.97496      28.030112     -13056.459     -13028.429      14095.784      16604.795      13887.971      14204.487      14194.893    
       394   2.0071693      213.78914      28.270006     -13056.619     -13028.349      14054.091      16604.795      13844.944      14161.512      14155.818    
       395   2.0118417      215.71839      28.525118     -13056.793     -13028.268      14007.818      16604.795      13797.356      14113.948      14112.15     
       396   2.0179255      217.75266      28.794115     -13056.981     -13028.187      13956.95       16604.795      13745.489      14061.955      14063.407    
       397   2.022958       219.88144      29.075611     -13057.18      -13028.104      13901.623      16604.795      13690.055      14004.087      14010.725    
       398   2.0278526      222.09381      29.368159     -13057.389     -13028.021      13843.124      16604.795      13632.096      13943.133      13954.143    
       399   2.0324634      224.37831      29.670246     -13057.608     -13027.937      13780.672      16604.795      13570.243      13878.076      13893.696    
       400   2.0371029      226.72335      29.980338     -13057.833     -13027.853      13714.997      16604.795      13505.733      13808.938      13830.319    
       401   2.0417988      229.11712      30.296873     -13058.065     -13027.768      13647.831      16604.795      13440.803      13737.798      13764.891    
       402   2.0475338      231.54752      30.618253     -13058.301     -13027.682      13578.976      16604.795      13374.284      13664.567      13698.078    
       403   2.053495       234.00249      30.942881     -13058.539     -13027.596      13508.783      16604.795      13307.046      13590.189      13629.114    
       404   2.0582768      236.46985      31.269149     -13058.778     -13027.509      13437.385      16604.795      13239.342      13514.161      13558.652    
       405   2.0630938      238.93744      31.595445     -13059.017     -13027.422      13365.253      16604.795      13170.984      13436.829      13487.947    
       406   2.0679573      241.39325      31.920185     -13059.254     -13027.334      13293.602      16604.795      13103.878      13359.705      13417.222    
       407   2.0727654      243.82552      32.241811     -13059.487     -13027.245      13223.014      16604.795      13038.242      13283.286      13347.513    
       408   2.0780114      246.22262      32.558787     -13059.715     -13027.156      13153.708      16604.795      12974.886      13207.616      13278.622    
       409   2.0843156      248.5732       32.869612     -13059.937     -13027.067      13084.838      16604.795      12911.881      13132.416      13210.218    
       410   2.0894137      250.86644      33.172854     -13060.151     -13026.978      13018.142      16604.795      12851.665      13059.255      13143.505    
       411   2.0940214      253.09187      33.467129     -13060.355     -13026.888      12954.956      16604.795      12794.761      12989.592      13080.514    
       412   2.0984258      255.23943      33.751109     -13060.549     -13026.798      12893.778      16604.795      12741.141      12921.095      13019.099    
       413   2.1032879      257.29975      34.023551     -13060.732     -13026.708      12836.517      16604.795      12691.481      12856.793      12961.276    
       414   2.1085655      259.26399      34.283289     -13060.901     -13026.618      12782.656      16604.795      12645.739      12795.776      12906.454    
       415   2.1150185      261.1239       34.52923      -13061.057     -13026.528      12732.55       16604.795      12603.527      12738.47       12855.653    
       416   2.120075       262.87199      34.760385     -13061.198     -13026.438      12687.191      16604.795      12567.313      12685.521      12808.738    
       417   2.1246537      264.50151      34.975862     -13061.323     -13026.348      12646.631      16604.795      12535.547      12637.611      12766.737    
       418   2.1293561      266.00645      35.174865     -13061.433     -13026.258      12611.889      16604.795      12509.657      12595.252      12730.758    
       419   2.1343495      267.38156      35.3567       -13061.525     -13026.168      12580.38       16604.795      12487.662      12556.915      12696.565    
       420   2.1391936      268.62243      35.520784     -13061.599     -13026.079      12555.854      16604.795      12472.577      12524.637      12670.348    
       421   2.1454212      269.72547      35.666643     -13061.656     -13025.989      12536.366      16604.795      12463.089      12498.297      12647.712    
       422   2.1507899      270.68795      35.793914     -13061.694     -13025.901      12522.523      16604.795      12459.283      12477.236      12631.051    
       423   2.1552292      271.50804      35.902358     -13061.714     -13025.812      12514.969      16604.795      12461.703      12463.223      12619.982    
       424   2.1598623      272.18471      35.991835     -13061.716     -13025.724      12513.442      16604.795      12470.34       12454.93       12615.055    
       425   2.1643213      272.71782      36.062331     -13061.699     -13025.636      12517.913      16604.795      12484.926      12453.007      12615.807    
       426   2.1690291      273.10812      36.113942     -13061.663     -13025.549      12527.941      16604.795      12505.044      12456.75       12622.029    
       427   2.1742987      273.35708      36.146861     -13061.61      -13025.463      12543.65       16604.795      12530.906      12466.853      12633.191    
       428   2.1803814      273.46704      36.161402     -13061.538     -13025.377      12565.412      16604.795      12562.694      12483.109      12650.432    
       429   2.1849803      273.44119      36.157984     -13061.449     -13025.291      12593.75       16604.795      12600.843      12506.486      12673.92     
       430   2.1899406      273.28347      36.137129     -13061.343     -13025.206      12628.096      16604.795      12644.787      12536.572      12702.928    
       431   2.1946652      272.99859      36.099457     -13061.221     -13025.122      12667.305      16604.795      12693.633      12571.508      12736.775    
       432   2.1998504      272.59192      36.045682     -13061.084     -13025.038      12711.309      16604.795      12747.481      12611.441      12775.005    
       433   2.2053817      272.06946      35.976596     -13060.931     -13024.955      12761.579      16604.795      12807.158      12657.939      12819.641    
       434   2.2119966      271.43785      35.893076     -13060.765     -13024.872      12815.417      16604.795      12870.119      12708.842      12867.291    
       435   2.2170916      270.70441      35.796091     -13060.586     -13024.79       12874.119      16604.795      12937.227      12765.162      12919.969    
       436   2.221724       269.87686      35.686662     -13060.395     -13024.709      12937.201      16604.795      13008.912      12826.01       12976.681    
       437   2.226172       268.9634       35.565872     -13060.194     -13024.628      13004.345      16604.795      13084.637      12891.338      13037.059    
       438   2.2307058      267.97277      35.434878     -13059.982     -13024.548      13075.162      16604.795      13163.329      12961.247      13100.91     
       439   2.2355064      266.91396      35.294868     -13059.763     -13024.468      13149.002      16604.795      13244.897      13034.315      13167.795    
       440   2.2417731      265.79625      35.147069     -13059.536     -13024.389      13225.626      16604.795      13328.708      13110.352      13237.818    
       441   2.2471876      264.62922      34.99275      -13059.303     -13024.31       13304.884      16604.795      13414.337      13189.941      13310.376    
       442   2.2517491      263.42261      34.833195     -13059.065     -13024.232      13385.981      16604.795      13501.905      13271.653      13384.386    
       443   2.2564874      262.18635      34.669721     -13058.823     -13024.154      13468.205      16604.795      13589.728      13355.092      13459.794    
       444   2.2613574      260.93049      34.503654     -13058.58      -13024.076      13551.913      16604.795      13678.589      13440.586      13536.563    
       445   2.265978       259.66487      34.336298     -13058.336     -13023.999      13636.709      16604.795      13768.204      13526.967      13614.956    
       446   2.2717676      258.3994       34.168961     -13058.092     -13023.923      13722.419      16604.795      13858.366      13615.345      13693.547    
       447   2.2777046      257.14393      34.002946     -13057.85      -13023.847      13806.37       16604.795      13946.151      13701.638      13771.321    
       448   2.2823669      255.90809      33.839528     -13057.61      -13023.771      13890.439      16604.795      14033.67       13788.705      13848.942    
       449   2.2871035      254.70138      33.679961     -13057.375     -13023.695      13972.947      16604.795      14119.228      13874.391      13925.222    
       450   2.2918422      253.53296      33.525456     -13057.145     -13023.619      14054.673      16604.795      14203.489      13959.764      14000.766    
       451   2.2964691      252.41164      33.37718      -13056.921     -13023.544      14135.439      16604.795      14285.801      14044.526      14075.991    
       452   2.3016227      251.34589      33.236253     -13056.705     -13023.469      14212.712      16604.795      14364.446      14125.993      14147.697    
       453   2.3079928      250.34381      33.103746     -13056.498     -13023.394      14287.994      16604.795      14440.275      14205.863      14217.843    
       454   2.3126863      249.41307      32.98067      -13056.3       -13023.319      14360.234      16604.795      14512.869      14282.776      14285.057    
       455   2.317609       248.56076      32.867967     -13056.112     -13023.244      14428.897      16604.795      14581.357      14356.107      14349.228    
       456   2.3223703      247.79347      32.766506     -13055.936     -13023.17       14494.351      16604.795      14645.974      14426.767      14410.313    
       457   2.3272288      247.11718      32.677078     -13055.772     -13023.095      14556.745      16604.795      14706.858      14494.382      14468.996    
       458   2.3325341      246.53732      32.600401     -13055.62      -13023.02       14614.32       16604.795      14762.664      14557.192      14523.106    
       459   2.3396142      246.05877      32.537121     -13055.482     -13022.945      14667.778      16604.795      14813.411      14616.261      14573.662    
       460   2.3445434      245.68567      32.487785     -13055.358     -13022.87       14717.002      16604.795      14860.014      14670.646      14620.346    
       461   2.3506142      245.4215       32.452853     -13055.248     -13022.795      14761.476      16604.795      14901.506      14720.273      14662.65     
       462   2.3556496      245.26909      32.432699     -13055.152     -13022.72       14801.625      16604.795      14937.792      14765.881      14701.201    
       463   2.3604595      245.23055      32.427603     -13055.072     -13022.644      14836.519      16604.795      14969.193      14806.251      14734.113    
       464   2.36604        245.30727      32.437747     -13055.006     -13022.568      14867.035      16604.795      14995.712      14841.961      14763.433    
       465   2.3721202      245.49999      32.463232     -13054.956     -13022.492      14891.77       16604.795      15015.702      14871.949      14787.659    
       466   2.3768427      245.80879      32.504065     -13054.92      -13022.416      14911.938      16604.795      15030.476      14897.832      14807.506    
       467   2.3816139      246.23294      32.560152     -13054.9       -13022.34       14926.893      16604.795      15040.026      14918.031      14822.622    
       468   2.3860132      246.7711       32.631314     -13054.894     -13022.263      14937.696      16604.795      15045.323      14934.157      14833.606    
       469   2.3907779      247.42118      32.717276     -13054.903     -13022.185      14943.158      16604.795      15045.249      14944.197      14840.027    
       470   2.3963057      248.18041      32.817672     -13054.925     -13022.108      14943.75       16604.795      15039.575      14949.69       14841.985    
       471   2.4039307      249.04548      32.932062     -13054.962     -13022.03       14940.177      16604.795      15030.378      14950.608      14839.546    
       472   2.4089302      250.01235      33.059916     -13055.011     -13021.952      14931.632      16604.795      15015.327      14946.864      14832.704    
       473   2.4137959      251.07643      33.200621     -13055.073     -13021.873      14918.976      16604.795      14996.187      14938.44       14822.3      
       474   2.4188462      252.2325       33.353493     -13055.147     -13021.794      14903.086      16604.795      14973.446      14926.859      14808.954    
       475   2.4241083      253.47485      33.517773     -13055.232     -13021.714      14883.142      16604.795      14947.148      14911.276      14791.001    
       476   2.4298492      254.79727      33.692639     -13055.327     -13021.635      14859.255      16604.795      14916.678      14891.15       14769.936    
       477   2.4358883      256.19301      33.877203     -13055.432     -13021.554      14831.907      16604.795      14882.765      14867.44       14745.515    
       478   2.440463       257.65494      34.070519     -13055.544     -13021.474      14802.18       16604.795      14846.723      14841.072      14718.746    
       479   2.4455213      259.17555      34.271593     -13055.664     -13021.393      14769.262      16604.795      14807.294      14811.238      14689.255    
[...]
       894   4.5634919      292.88887      38.729612     -13050.075     -13011.346      16790.088      16604.795      16653.312      16758.669      16958.282    
       895   4.5678807      294.94351      39.001303     -13050.368     -13011.366      16718.137      16604.795      16580.844      16687.712      16885.854    
       896   4.5714048      297.03091      39.277327     -13050.665     -13011.387      16645.318      16604.795      16507.046      16615.574      16813.335    
       897   4.5751643      299.14233      39.556526     -13050.965     -13011.408      16572.618      16604.795      16433.912      16542.94       16741.003    
       898   4.578737       301.26901      39.837744     -13051.267     -13011.429      16498.528      16604.795      16359.698      16468.027      16667.859    
       899   4.5825879      303.40215      40.119815     -13051.57      -13011.45       16424.685      16604.795      16285.646      16392.555      16595.855    
       900   4.5861921      305.53296      40.401579     -13051.874     -13011.472      16351.677      16604.795      16212.7        16317.254      16525.078    
       901   4.5903415      307.65267      40.681876     -13052.176     -13011.494      16278.152      16604.795      16139.443      16241.141      16453.871    
       902   4.5954565      309.75261      40.959557     -13052.475     -13011.516      16205.748      16604.795      16067.381      16165.554      16384.309    
       903   4.5992033      311.82433      41.233507     -13052.772     -13011.538      16133.306      16604.795      15995.685      16089.144      16315.088    
       904   4.6025893      313.85951      41.502624     -13053.064     -13011.561      16062.851      16604.795      15926.222      16013.94       16248.39     
       905   4.6062383      315.8499       41.765821     -13053.35      -13011.585      15994.206      16604.795      15858.731      15939.9        16183.987    
       906   4.6102221      317.78763      42.022053     -13053.631     -13011.609      15926.27       16604.795      15792.071      15866.334      16120.406    
       907   4.6139974      319.66512      42.270319     -13053.904     -13011.633      15860.376      16604.795      15727.765      15794.294      16059.068    
       908   4.617591       321.47495      42.509639     -13054.168     -13011.659      15797.25       16604.795      15666.411      15724.635      16000.704    
       909   4.622262       323.2101       42.739083     -13054.424     -13011.685      15735.625      16604.795      15606.493      15655.655      15944.729    
       910   4.6265091      324.86393      42.957774     -13054.669     -13011.712      15676.327      16604.795      15549.79       15588.836      15890.355    
       911   4.629824       326.43014      43.164879     -13054.904     -13011.739      15620.579      16604.795      15496.123      15525.051      15840.562    
       912   4.6334876      327.90291      43.359628     -13055.127     -13011.768      15566.76       16604.795      15444.52       15462.425      15793.336    
       913   4.6368692      329.27677      43.541297     -13055.339     -13011.797      15517.258      16604.795      15398.061      15404.051      15749.663    
       914   4.6403939      330.54665      43.709218     -13055.537     -13011.828      15469.52       16604.795      15353.235      15347.19       15708.134    
       915   4.6437589      331.70806      43.862794     -13055.722     -13011.859      15425.203      16604.795      15312.004      15293.589      15670.016    
       916   4.6478463      332.75687      44.001482     -13055.893     -13011.892      15385.439      16604.795      15275.672      15243.76       15636.887    
       917   4.65265        333.68943      44.124797     -13056.05      -13011.925      15348.545      16604.795      15241.851      15197.353      15606.431    
       918   4.6562181      334.50275      44.232344     -13056.192     -13011.959      15315.126      16604.795      15211.664      15153.552      15580.162    
       919   4.6597331      335.19421      44.32378      -13056.319     -13011.995      15285.766      16604.795      15186.374      15113.943      15556.98     
       920   4.6632933      335.76171      44.398821     -13056.43      -13012.031      15260.262      16604.795      15164.581      15077.39       15538.815    
       921   4.6667428      336.20375      44.457274     -13056.526     -13012.069      15238.455      16604.795      15147.002      15045.055      15523.309    
       922   4.6699652      336.51929      44.498998     -13056.607     -13012.108      15220.175      16604.795      15132.899      15015.86       15511.767    
       923   4.673772       336.70776      44.52392      -13056.672     -13012.148      15205.669      16604.795      15122.863      14990.245      15503.899    
       924   4.6785699      336.76925      44.532051     -13056.72      -13012.188      15195.247      16604.795      15117.08       14968.752      15499.909    
       925   4.6820269      336.70427      44.523459     -13056.754     -13012.23       15188.645      16604.795      15114.807      14951.483      15499.645    
       926   4.6852261      336.5138       44.498273     -13056.771     -13012.273      15185.724      16604.795      15116.203      14937.82       15503.149    
       927   4.6885376      336.19947      44.456707     -13056.773     -13012.317      15187.181      16604.795      15122.354      14928.087      15511.103    
       928   4.6917188      335.76332      44.399034     -13056.761     -13012.361      15191.195      16604.795      15130.989      14921.404      15521.192    
       929   4.6949904      335.20787      44.325586     -13056.733     -13012.407      15199.006      16604.795      15143.616      14918.634      15534.768    
       930   4.698185       334.53615      44.236762     -13056.69      -13012.454      15210.75       16604.795      15160.73       14919.29       15552.231    
       931   4.7023986      333.75161      44.13302      -13056.634     -13012.501      15225.376      16604.795      15180.174      14923.781      15572.171    
       932   4.7071333      332.85819      44.01488      -13056.564     -13012.549      15243.245      16604.795      15203.534      14931.099      15595.102    
       933   4.7105281      331.86012      43.882902     -13056.48      -13012.598      15264.103      16604.795      15229.459      14941.905      15620.945    
       934   4.71375        330.76211      43.737709     -13056.385     -13012.647      15288.41       16604.795      15259.259      14956.362      15649.608    
       935   4.7170913      329.5693       43.579979     -13056.277     -13012.697      15314.362      16604.795      15290.647      14972.5        15679.937    
       936   4.7202672      328.28705      43.410424     -13056.158     -13012.747      15343.792      16604.795      15325.234      14992.627      15713.515    
       937   4.7236159      326.92113      43.229803     -13056.028     -13012.798      15375.595      16604.795      15363.196      15015.037      15748.551    
       938   4.7270791      325.47751      43.038909     -13055.889     -13012.85       15409.542      16604.795      15402.577      15039.922      15786.128    
       939   4.7315243      323.96249      42.838573     -13055.74      -13012.901      15444.885      16604.795      15443.779      15066.797      15824.08     
       940   4.7355596      322.38253      42.62965      -13055.583     -13012.953      15482.222      16604.795      15487.038      15095.586      15864.041    
       941   4.7388004      320.74438      42.413032     -13055.418     -13013.005      15521.523      16604.795      15532.623      15126.432      15905.515    
       942   4.7422612      319.05491      42.189629     -13055.247     -13013.058      15562.119      16604.795      15579.365      15159.719      15947.273    
       943   4.7454583      317.32106      41.960357     -13055.07      -13013.11       15603.87       16604.795      15626.987      15193.952      15990.672    
       944   4.7488922      315.54992      41.726153     -13054.888     -13013.162      15646.338      16604.795      15675.814      15229.295      16033.904    
       945   4.7521232      313.74866      41.487967     -13054.702     -13013.215      15689.967      16604.795      15725.666      15266.314      16077.922    
       946   4.7559355      311.92446      41.246747     -13054.513     -13013.267      15734.034      16604.795      15775.925      15304.005      16122.172    
       947   4.7608049      310.08446      41.003438     -13054.322     -13013.319      15777.992      16604.795      15826.697      15342.029      16165.25     
       948   4.7643127      308.23584      40.758989     -13054.129     -13013.37       15822.489      16604.795      15877.822      15381.373      16208.271    
       949   4.7675423      306.38567      40.514335     -13053.936     -13013.422      15866.216      16604.795      15927.765      15419.984      16250.9      
       950   4.7708505      304.5409       40.270396     -13053.743     -13013.473      15910.738      16604.795      15978.429      15460.084      16293.7      
       951   4.7740305      302.70833      40.02807      -13053.552     -13013.524      15953.12       16604.795      16027.654      15497.958      16333.748    
       952   4.7773322      300.89473      39.788251     -13053.362     -13013.574      15996.486      16604.795      16077.239      15537.834      16374.386    
       953   4.7805378      299.10655      39.551795     -13053.176     -13013.624      16037.512      16604.795      16124.304      15575.956      16412.278    
       954   4.7846312      297.35003      39.319525     -13052.993     -13013.673      16077.411      16604.795      16170.689      15612.964      16448.579    
       955   4.7890473      295.63124      39.092243     -13052.814     -13013.722      16116.449      16604.795      16215.718      15649.9        16483.728    
       956   4.7923792      293.95593      38.870712     -13052.641     -13013.77       16154.002      16604.795      16259.421      15685.767      16516.818    
       957   4.7955963      292.32957      38.655653     -13052.473     -13013.818      16189.672      16604.795      16300.638      15720.404      16547.972    
       958   4.7989222      290.75728      38.447745     -13052.312     -13013.865      16222.826      16604.795      16339.357      15752.948      16576.172    
       959   4.8020939      289.24395      38.247633     -13052.158     -13013.911      16254.812      16604.795      16376.861      15784.705      16602.869    
       960   4.8054566      287.79404      38.055906     -13052.012     -13013.956      16283.615      16604.795      16410.582      15814.001      16626.264    
       961   4.8089323      286.41163      37.873106     -13051.874     -13014.001      16310.113      16604.795      16441.856      15841.884      16646.598    
       962   4.8135596      285.10046      37.699726     -13051.745     -13014.046      16334.769      16604.795      16471.298      15868.45       16664.56     
       963   4.8174002      283.8639       37.536211     -13051.625     -13014.089      16356.577      16604.795      16497.144      15891.967      16680.619    
       964   4.8205889      282.7049       37.382953     -13051.515     -13014.132      16376.481      16604.795      16520.693      15914.871      16693.879    
       965   4.8240385      281.62594      37.24028      -13051.414     -13014.174      16392.385      16604.795      16540.252      15934.317      16702.586    
       966   4.8272423      280.62919      37.108476     -13051.323     -13014.215      16405.705      16604.795      16556.33       15951.604      16709.183    
       967   4.830644       279.71641      36.987776     -13051.243     -13014.255      16416.252      16604.795      16569.578      15966.534      16712.644    
       968   4.8338577      278.88881      36.87834      -13051.173     -13014.295      16424.28       16604.795      16579.587      15979.639      16713.613    
       969   4.8376506      278.14734      36.780293     -13051.114     -13014.334      16429.087      16604.795      16585.924      15990.205      16711.132    
       970   4.8424049      277.49249      36.6937       -13051.066     -13014.372      16430.48       16604.795      16588.509      15997.73       16705.2      
       971   4.8458765      276.92424      36.618559     -13051.028     -13014.41       16429.391      16604.795      16588.151      16003.144      16696.878    
       972   4.849052       276.44231      36.554831     -13051.001     -13014.447      16425.66       16604.795      16584.592      16006.651      16685.737    
       973   4.852325       276.04595      36.502419     -13050.985     -13014.483      16418.254      16604.795      16576.736      16007.194      16670.831    
       974   4.8554937      275.73399      36.461169     -13050.979     -13014.518      16409.182      16604.795      16566.748      16006.241      16654.558    
       975   4.8587583      275.50501      36.43089      -13050.983     -13014.553      16396.447      16604.795      16552.595      16001.67       16635.075    
       976   4.8619565      275.35715      36.411338     -13050.998     -13014.587      16381.732      16604.795      16536.351      15995.88       16612.965    
       977   4.8659568      275.2882       36.402219     -13051.022     -13014.62       16364.602      16604.795      16516.854      15988.075      16588.878    
       978   4.8704259      275.29561      36.4032       -13051.055     -13014.652      16344.025      16604.795      16493.198      15977.189      16561.689    
       979   4.8736378      275.37655      36.413902     -13051.098     -13014.684      16322.118      16604.795      16468.333      15965.183      16532.837    
       980   4.8767315      275.5279       36.433917     -13051.149     -13014.715      16297.902      16604.795      16439.867      15951.348      16502.491    
       981   4.8797899      275.74628      36.462794     -13051.209     -13014.746      16271.353      16604.795      16409.634      15935.005      16469.42     
       982   4.882876       276.02799      36.500044     -13051.276     -13014.776      16242.665      16604.795      16376.664      15916.815      16434.516    
       983   4.8859651      276.36913      36.545155     -13051.351     -13014.805      16212.448      16604.795      16341.515      15897.803      16398.027    
       984   4.8890477      276.76569      36.597593     -13051.432     -13014.834      16180.523      16604.795      16304.689      15876.335      16360.544    
       985   4.8920791      277.21337      36.656792     -13051.519     -13014.862      16148.263      16604.795      16266.79       15855.286      16322.714    
       986   4.895144       277.7077       36.722158     -13051.612     -13014.89       16114.535      16604.795      16227.73       15832.342      16283.534    
       987   4.8981704      278.24416      36.793095     -13051.71      -13014.917      16079.31       16604.795      16186.547      15808.193      16243.191    
       988   4.9012258      278.81807      36.868986     -13051.813     -13014.944      16044.005      16604.795      16145.495      15783.755      16202.766    
       989   4.9042508      279.42473      36.949206     -13051.919     -13014.97       16007.961      16604.795      16103.289      15758.829      16161.765    
       990   4.9073189      280.05939      37.033129     -13052.029     -13014.996      15970.651      16604.795      16059.552      15732.342      16120.06     
       991   4.9103599      280.71728      37.120124     -13052.141     -13015.021      15933.723      16604.795      16016.427      15705.675      16079.068    
       992   4.9133661      281.39361      37.209557     -13052.255     -13015.046      15897.203      16604.795      15973.525      15679.743      16038.341    
       993   4.9163737      282.08368      37.300808     -13052.371     -13015.07       15860.239      16604.795      15930.254      15653.101      15997.362    
       994   4.9193755      282.78294      37.393273     -13052.487     -13015.094      15824.732      16604.795      15888.871      15627.343      15957.981    
       995   4.9224043      283.48681      37.486348     -13052.604     -13015.117      15788.754      16604.795      15846.681      15601.397      15918.184    
       996   4.9254313      284.19083      37.579443     -13052.72      -13015.141      15754.403      16604.795      15806.205      15576.377      15880.628    
       997   4.9284677      284.89078      37.672        -13052.835     -13015.163      15720.887      16604.795      15767.461      15551.923      15843.277    
       998   4.9315907      285.58265      37.763487     -13052.949     -13015.186      15687.954      16604.795      15728.743      15528.081      15807.037    
       999   4.934746       286.26255      37.853393     -13053.061     -13015.208      15656.252      16604.795      15692.042      15504.654      15772.059    
      1000   4.9378847      286.92685      37.941234     -13053.171     -13015.23       15626.141      16604.795      15657.179      15482.593      15738.651    
Loop time of 4.93791 on 16 procs for 1000 steps with 1024 atoms

Performance: 17.497 ns/day, 1.372 hours/ns, 202.515 timesteps/s
98.8% CPU use with 16 MPI tasks x 1 OpenMP threads

MPI task timing breakdown:
Section |  min time  |  avg time  |  max time  |%varavg| %total
---------------------------------------------------------------
Pair    | 4.0978     | 4.1927     | 4.3344     |   2.7 | 84.91
Neigh   | 0          | 0          | 0          |   0.0 |  0.00
Comm    | 0.23469    | 0.36372    | 0.47121    |   9.8 |  7.37
Output  | 0.31698    | 0.31928    | 0.34533    |   1.2 |  6.47
Modify  | 0.017577   | 0.01985    | 0.023621   |   1.6 |  0.40
Other   |            | 0.04231    |            |       |  0.86

Nlocal:             64 ave          64 max          64 min
Histogram: 16 0 0 0 0 0 0 0 0 0
Nghost:            887 ave         887 max         887 min
Histogram: 16 0 0 0 0 0 0 0 0 0
Neighs:              0 ave           0 max           0 min
Histogram: 16 0 0 0 0 0 0 0 0 0
FullNghs:         5632 ave        5632 max        5632 min
Histogram: 16 0 0 0 0 0 0 0 0 0

Total # of neighbors = 90112
Ave neighs/atom = 88
Neighbor list builds = 0
Dangerous builds = 0


--------------------------------------------------------------------------

                               FLOPs Report

--------------------------------------------------------------------------
         alloc:     0.0000 GFlops,       0.0001 secs,       0.0000 GFLOP/s
         setup:     0.0000 GFlops,       0.2493 secs,       0.0000 GFLOP/s
   fnn->interp:     3.4243 GFlops,       0.9053 secs,       3.7824 GFLOP/s
             P:     7.2090 GFlops,       0.5034 secs,      14.3202 GFLOP/s
             Q:     0.4506 GFlops,       0.0862 secs,       5.2249 GFLOP/s
             G:     0.0020 GFlops,       0.0116 secs,       0.1763 GFLOP/s
   nn->compute:    12.7224 GFlops,       0.4853 secs,      26.2178 GFLOP/s
          dEdP:     0.4547 GFlops,       0.1139 secs,       3.9909 GFLOP/s
            UV:    14.4179 GFlops,       1.0202 secs,      14.1324 GFLOP/s
            F1:     0.3773 GFlops,       0.3558 secs,       1.0605 GFLOP/s
            F2:     0.2422 GFlops,       0.3924 secs,       0.6171 GFLOP/s
        forces:     0.0676 GFlops,       0.0418 secs,       1.6162 GFLOP/s
--------------------------------------------------------------------------
       Overall:    39.3679 GFlops,       4.1654 secs,       9.4512 GFLOP/s
--------------------------------------------------------------------------

Total wall time: 0:00:05
