LAMMPS (4 May 2022)
variable                    T equal 300
variable                    R equal 984523

units		                metal
dimension                   3
boundary	                p p p
atom_style	                atomic

lattice                     bcc 3.189
Lattice spacing in x,y,z = 3.189 3.189 3.189
region                      box block 0 4 0 4 0 4
create_box                  1 box
Created orthogonal box = (0 0 0) to (12.756 12.756 12.756)
  1 by 1 by 1 MPI processor grid
create_atoms                1 box
Created 128 atoms
  using lattice units in orthogonal box = (0 0 0) to (12.756 12.756 12.756)
  create_atoms CPU = 0.000 seconds

pair_style	                tensormd
pair_coeff	                * * ../../W_k32_snapshot.npz W interp 0.001 1
Use interpolation: dr = 0.0010, algo = batch

mass                        1 183.8

neighbor                    1.0 bin
neigh_modify                every 5 delay 0 check yes

thermo                      10
thermo_style                custom step cpu temp ke pe etotal press vol pxx pyy pzz

velocity                    all create $T $R dist gaussian
velocity                    all create 300 $R dist gaussian
velocity                    all create 300 984523 dist gaussian
fix                         1 all nvt temp $T $T 0.1
fix                         1 all nvt temp 300 $T 0.1
fix                         1 all nvt temp 300 300 0.1

run                         1000
Neighbor list info ...
  update every 5 steps, delay 0 steps, check yes
  max neighbors/atom: 2000, page size: 100000
  master list distance cutoff = 7
  ghost atom cutoff = 7
  binsize = 3.5, bins = 4 4 4
  1 neighbor lists, perpetual/occasional/extra = 1 0 0
  (1) pair tensormd, perpetual
      attributes: full, newton on
      pair build: full/bin/atomonly
      stencil: full/bin/3d
      bin: standard
Per MPI rank memory allocation (min/avg/max) = 24.15 | 24.15 | 24.15 Mbytes
   Step          CPU            Temp          KinEng         PotEng         TotEng         Press          Volume          Pxx            Pyy            Pzz      
         0   0              300            4.9248115     -1636.4633     -1631.5385      1537.3261      2075.5994      1577.4581      1441.6413      1592.8789    
        10   0.052311433    275.09146      4.515912      -1636.0537     -1631.5377      2664.7739      2075.5994      2690.4182      2561.312       2742.5916    
        20   0.10156888     209.78805      3.4438887     -1634.9735     -1631.5296      5557.1053      2075.5994      5545.1629      5431.6433      5694.5097    
        30   0.15063796     128.79735      2.1143422     -1633.6217     -1631.5074      9014.7702      2075.5994      8933.8675      8864.8901      9245.5529    
        40   0.19547275     61.852327      1.0153702     -1632.4935     -1631.4781      11727.397      2075.5994      11525.331      11569.325      12087.534    
        50   0.23785609     31.703665      0.52044859    -1631.9743     -1631.4539      12796.94       2075.5994      12415.172      12660.759      13314.889    
        60   0.28050672     46.205623      0.75851329    -1632.185      -1631.4265      12022.472      2075.5994      11432.19       11936.262      12698.964    
        70   0.32300524     95.956173      1.5752202     -1632.9478     -1631.3726      9919.3963      2075.5994      9155.8252      9892.7598      10709.604    
        80   0.36530284     158.19521      2.5969387     -1633.8869     -1631.2899      7482.4737      2075.5994      6648.658       7502.0152      8296.748     
        90   0.40764614     208.54331      3.423455      -1634.6162     -1631.1927      5747.329       2075.5994      4978.0431      5788.5196      6475.4243    
       100   0.44974218     232.27254      3.812995      -1634.9048     -1631.0918      5315.1573      2075.5994      4724.3054      5360.1983      5860.9682    
       110   0.49193405     227.91625      3.741482      -1634.7343     -1630.9928      6136.8805      2075.5994      5779.9967      6182.0834      6448.5615    
       120   0.53402562     204.82614      3.3624338     -1634.2599     -1630.8975      7669.8226      2075.5994      7532.1403      7720.7852      7756.5422    
       130   0.57630791     177.36421      2.9116177     -1633.7161     -1630.8045      9212.5736      2075.5994      9220.408       9275.5449      9141.7679    
       140   0.61850976     158.14929      2.5961848     -1633.3072     -1630.711       10221.497      2075.5994      10268.116      10297.603      10098.772    
       150   0.66074259     153.16149      2.5143049     -1633.1269     -1630.6126      10510.824      2075.5994      10483.69       10595.841      10452.942    
       160   0.70316862     160.57246      2.6359637     -1633.1408     -1630.5048      10279.593      2075.5994      10080.897      10366.827      10391.054    
       170   0.74545922     173.34034      2.8455618     -1633.2318     -1630.3862      9954.2716      2075.5994      9519.7728      10037.818      10305.224    
       180   0.78944258     184.04399      3.0212732     -1633.2812     -1630.2599      9914.9093      2075.5994      9240.9305      9992.6013      10511.196    
       190   0.83176242     189.34895      3.1083596     -1633.2392     -1630.1309      10269.875      2075.5994      9433.3741      10343.944      11032.306    
       200   0.87420885     191.50958      3.1438287     -1633.1458     -1630.0019      10820.804      2075.5994      9963.4401      10892.096      11606.877    
       210   0.91649527     195.99578      3.2174743     -1633.0897     -1629.8722      11218.345      2075.5994      10490.831      11280.282      11883.922    
       220   0.95887807     206.9033       3.3965326     -1633.1349     -1629.7384      11204.622      2075.5994      10697.952      11248.264      11667.649    
       230   1.0012352      223.33267      3.6662377     -1633.2635     -1629.5973      10807.119      2075.5994      10508.794      10836.564      11075.998    
       240   1.0434705      239.28957      3.9281868     -1633.3779     -1629.4497      10347.948      2075.5994      10153.05       10387.243      10503.551    
       250   1.0860538      247.25791      4.0589953     -1633.3593     -1629.3003      10246.195      2075.5994      10017.509      10326.078      10394.999    
       260   1.1283085      243.06236      3.990121      -1633.1453     -1629.1552      10760.58       2075.5994      10389.291      10903.802      10988.645    
       270   1.1708636      229.00133      3.7592946     -1632.7773     -1629.018       11825.57       2075.5994      11256.979      12045.023      12174.709    
       280   1.2131709      213.42368      3.5035713     -1632.3914     -1628.8878      13055.188      2075.5994      12290.11       13358.35       13517.104    
       290   1.255635       206.77212      3.3943791     -1632.1542     -1628.7598      13930.223      2075.5994      13020.022      14316.659      14453.989    
       300   1.2981075      215.91051      3.5443953     -1632.1708     -1628.6264      14080.114      2075.5994      13112.348      14530.17       14597.826    
       310   1.3404595      239.61316      3.9334988     -1632.4143     -1628.4808      13504.842      2075.5994      12573.963      13967.733      13972.831    
       320   1.3829261      268.08409      4.4008788     -1632.7239     -1628.323       12608.379      2075.5994      11776.331      13012.504      13036.301    
       330   1.4253508      287.66613      4.7223382     -1632.8836     -1628.1612      12002.14       2075.5994      11262.533      12298.376      12445.512    
       340   1.4677909      288.44169      4.7350698     -1632.7424     -1628.0073      12174.003      2075.5994      11452.062      12374.603      12695.344    
       350   1.5102751      269.95713      4.4316266     -1632.2999     -1627.8683      13202.716      2075.5994      12412.259      13365.655      13830.234    
       360   1.5526483      241.68863      3.9675698     -1631.7109     -1627.7434      14707.53       2075.5994      13825.235      14882.045      15415.31     
       370   1.5951976      218.5202       3.587236      -1631.2134     -1627.6261      16064.64       2075.5994      15154.224      16266.503      16773.192    
       380   1.6377788      213.85316      3.5106216     -1631.0178     -1627.5072      16729.572      2075.5994      15902.711      16954.398      17331.606    
       390   1.6803061      233.41235      3.831706      -1631.2075     -1627.3758      16489.326      2075.5994      15844.048      16719.435      16904.495    
       400   1.7226753      272.21431      4.4686806     -1631.6938     -1627.2251      15541.479      2075.5994      15112.125      15747.915      15764.396    
       410   1.7650488      316.08201      5.1888144     -1632.2484     -1627.0596      14366.603      2075.5994      14096.37       14526.652      14476.787    
       420   1.807517       347.9378       5.7117603     -1632.6078     -1626.8961      13526.29       2075.5994      13270.865      13650.245      13657.758    
       430   1.8498403      356.21832      5.8476936     -1632.6012     -1626.7535      13462.036      2075.5994      13042.582      13598.346      13745.18     
       440   1.8923372      340.19382      5.5846348     -1632.2255     -1626.6409      14278.96       2075.5994      13571.542      14475.86       14789.479    
       450   1.9348167      309.42331      5.0795049     -1631.6333     -1626.5538      15695.613      2075.5994      14695.864      15956.343      16434.633    
       460   1.977384       278.6266       4.5739449     -1631.0542     -1626.4802      17207.523      2075.5994      16026.291      17480.62       18115.66     
       470   2.0198054      261.26909      4.2890034     -1630.6973     -1626.4083      18313.825      2075.5994      17117.079      18528.034      19296.361    
       480   2.0623786      264.36264      4.3397872     -1630.6688     -1626.329       18704.247      2075.5994      17644.758      18821.768      19646.216    
       490   2.1049612      286.05335      4.6958628     -1630.9335     -1626.2376      18368.54       2075.5994      17539.254      18409.404      19156.961    
       500   2.1473828      316.84047      5.2012653     -1631.3369     -1626.1357      17577.054      2075.5994      16987.985      17598.534      18144.643    
       510   2.1898897      344.19274      5.6502813     -1631.6831     -1626.0328      16759.575      2075.5994      16338.287      16822.046      17118.39     
       520   2.2322348      359.43791      5.9005466     -1631.8431     -1625.9425      16251.426      2075.5994      15874.787      16398.729      16480.76     
       530   2.2747228      362.1757       5.9454902     -1631.8201     -1625.8746      16086.845      2075.5994      15633.284      16338.829      16288.423    
       540   2.3172054      358.34811      5.8826563     -1631.7143     -1625.8317      16080.85       2075.5994      15474.778      16427.267      16340.503    
       550   2.3596795      353.74894      5.8071562     -1631.6193     -1625.8121      16053.481      2075.5994      15287.449      16447.464      16425.53     
       560   2.4022231      348.76984      5.725419      -1631.539      -1625.8135      16040.103      2075.5994      15167.916      16396.702      16555.691    
       570   2.4446341      338.84955      5.5625673     -1631.3958     -1625.8332      16289.323      2075.5994      15383.502      16506.657      16977.809    
       580   2.4873217      319.46608      5.2443674     -1631.1104     -1625.866       17017.587      2075.5994      16118.5        17029.087      17905.175    
       590   2.5297616      291.02356      4.7774539     -1630.6803     -1625.9029      18145.822      2075.5994      17250.814      17960.671      19225.98     
       600   2.572343       260.21063      4.2716278     -1630.2052     -1625.9336      19294.084      2075.5994      18394.147      18979.297      20508.806    
       610   2.6149656      237.62856      3.9009195     -1629.8517     -1625.9508      20032.936      2075.5994      19149.121      19668.92       21280.767    
       620   2.6574392      233.51308      3.8333597     -1629.7849     -1625.9515      20035.988      2075.5994      19219.946      19688.696      21199.321    
       630   2.7001961      253.46065      4.1608198     -1630.0959     -1625.9351      19168.197      2075.5994      18478.324      18881.218      20145.05     
       640   2.7426303      295.24458      4.8467464     -1630.7498     -1625.9031      17600.684      2075.5994      17077.467      17404.696      18319.888    
       650   2.7851633      348.0811       5.7141127     -1631.578      -1625.8639      15798.292      2075.5994      15454.365      15723.782      16216.728    
       660   2.8276565      395.51376      6.4927691     -1632.3305     -1625.8378      14344.728      2075.5994      14170.106      14416.542      14447.536    
       670   2.8699401      421.66087      6.9220011     -1632.7729     -1625.8509      13707.476      2075.5994      13679.196      13921.521      13521.711    
       680   2.9123222      418.192        6.865056      -1632.7845     -1625.9194      14089.505      2075.5994      14162.493      14399.943      13706.08     
       690   2.9545586      388.03269      6.3699596     -1632.4063     -1626.0364      15322.442      2075.5994      15404.708      15646.484      14916.136    
       700   2.9970242      343.87554      5.645074      -1631.8203     -1626.1752      16829.191      2075.5994      16796.031      17073.289      16618.252    
       710   3.0393669      302.09952      4.9592774     -1631.2676     -1626.3083      17916.565      2075.5994      17662.315      18013.694      18073.687    
       720   3.0819191      274.82956      4.5116127     -1630.9337     -1626.4221      18176.973      2075.5994      17660.522      18103.554      18766.843    
       730   3.1243247      264.66056      4.3446779     -1630.8605     -1626.5158      17670.811      2075.5994      16933.952      17452.45       18626.031    
       740   3.1667494      265.30307      4.3552254     -1630.949      -1626.5938      16840.388      2075.5994      15994.383      16547.778      17979.002    
       750   3.2093502      267.82187      4.3965741     -1631.0559     -1626.6594      16192.608      2075.5994      15376.779      15919.561      17281.484    
       760   3.2520286      267.68409      4.3943122     -1631.1083     -1626.714       15983.86       2075.5994      15301.528      15814.244      16835.807    
       770   3.2945542      267.26992      4.3875133     -1631.1456     -1626.7581      16109.21       2075.5994      15586.911      16096.014      16644.706    
       780   3.33708        272.66678      4.4761083     -1631.2688     -1626.7927      16215.922      2075.5994      15823.644      16383.01       16441.112    
       790   3.379719       288.06765      4.7289296     -1631.5494     -1626.8205      15978.917      2075.5994      15678.379      16320.107      15938.264    
       800   3.4220548      312.00694      5.121918      -1631.9687     -1626.8468      15302.062      2075.5994      15069.948      15772.272      15063.965    
       810   3.4644943      337.16658      5.5349395     -1632.4149     -1626.8799      14344.955      2075.5994      14159.508      14862.698      14012.659    
       820   3.5072185      353.23378      5.7986993     -1632.7281     -1626.9294      13455.182      2075.5994      13280.867      13930.107      13154.571    
       830   3.5494755      351.02763      5.762483      -1632.7627     -1627.0002      13040.814      2075.5994      12835.559      13419.603      12867.279    
       840   3.5919503      326.59539      5.3614025     -1632.4479     -1627.0865      13404.954      2075.5994      13144.159      13690.632      13380.07     
       850   3.6344546      284.412        4.6689182     -1631.8406     -1627.1717      14568.303      2075.5994      14267.38       14784.213      14653.316    
       860   3.6769339      237.3931       3.8970543     -1631.1355     -1627.2384      16141.16       2075.5994      15852.423      16288.663      16282.393    
       870   3.7193346      202.36902      3.3220976     -1630.6009     -1627.2788      17452.768      2075.5994      17223.023      17526.271      17609.01     
       880   3.7617881      192.97541      3.1678918     -1630.4619     -1627.294       17897.45       2075.5994      17717.458      17929.648      18045.245    
       890   3.8043534      213.60361      3.506525      -1630.7931     -1627.2866      17239.743      2075.5994      17039.105      17311.252      17368.872    
       900   3.846761       257.15145      4.2214081     -1631.4776     -1627.2561      15732.469      2075.5994      15424.528      15936.872      15836.005    
       910   3.8892749      307.55272      5.0487972     -1632.2551     -1627.2063      14011.146      2075.5994      13543.069      14412.592      14077.776    
       920   3.9317478      346.39245      5.6863918     -1632.837      -1627.1506      12782.586      2075.5994      12164.998      13382.082      12800.679    
       930   3.9742948      360.97672      5.9258077     -1633.0331     -1627.1073      12478.652      2075.5994      11797.388      13188.949      12449.617    
       940   4.0168475      349.59186      5.7389133     -1632.8254     -1627.0864      13108.799      2075.5994      12496.098      13776.397      13053.902    
       950   4.0591216      321.02405      5.2699431     -1632.3543     -1627.0843      14317.882      2075.5994      13870.434      14809.723      14273.49     
       960   4.1015845      289.44884      4.7516033     -1631.8411     -1627.0895      15578.944      2075.5994      15295.174      15858.419      15583.238    
       970   4.1440389      267.79061      4.396061      -1631.4874     -1627.0914      16420.517      2075.5994      16215.703      16551.983      16493.866    
       980   4.186536       262.48635      4.3089859     -1631.3933     -1627.0843      16596.382      2075.5994      16364.294      16689.843      16735.01     
       990   4.2289392      271.38151      4.4550093     -1631.5214     -1627.0664      16187.201      2075.5994      15841.345      16339.68       16380.578    
      1000   4.2714045      285.66328      4.6894593     -1631.7281     -1627.0387      15555.653      2075.5994      15029.454      15830.976      15806.53     
Loop time of 4.27142 on 1 procs for 1000 steps with 128 atoms

Performance: 20.227 ns/day, 1.187 hours/ns, 234.114 timesteps/s
99.5% CPU use with 1 MPI tasks x no OpenMP threads

MPI task timing breakdown:
Section |  min time  |  avg time  |  max time  |%varavg| %total
---------------------------------------------------------------
Pair    | 4.2605     | 4.2605     | 4.2605     |   0.0 | 99.74
Neigh   | 0          | 0          | 0          |   0.0 |  0.00
Comm    | 0.0046514  | 0.0046514  | 0.0046514  |   0.0 |  0.11
Output  | 0.0017037  | 0.0017037  | 0.0017037  |   0.0 |  0.04
Modify  | 0.0034709  | 0.0034709  | 0.0034709  |   0.0 |  0.08
Other   |            | 0.001138   |            |       |  0.03

Nlocal:            128 ave         128 max         128 min
Histogram: 1 0 0 0 0 0 0 0 0 0
Nghost:           1113 ave        1113 max        1113 min
Histogram: 1 0 0 0 0 0 0 0 0 0
Neighs:              0 ave           0 max           0 min
Histogram: 1 0 0 0 0 0 0 0 0 0
FullNghs:        11264 ave       11264 max       11264 min
Histogram: 1 0 0 0 0 0 0 0 0 0

Total # of neighbors = 11264
Ave neighs/atom = 88
Neighbor list builds = 0
Dangerous builds = 0


--------------------------------------------------------------------------

                               FLOPs Report

--------------------------------------------------------------------------
         alloc:     0.0000 GFlops,       0.0000 secs,       0.0000 GFLOP/s
         setup:     0.0000 GFlops,       0.2174 secs,       0.0000 GFLOP/s
   fnn->interp:     6.8485 GFlops,       1.2381 secs,       5.5316 GFLOP/s
             P:    14.4179 GFlops,       0.3616 secs,      39.8748 GFLOP/s
             Q:     0.9011 GFlops,       0.1244 secs,       7.2432 GFLOP/s
             G:     0.0041 GFlops,       0.0162 secs,       0.2529 GFLOP/s
   nn->compute:    25.4447 GFlops,       0.7486 secs,      33.9909 GFLOP/s
          dEdP:     0.9093 GFlops,       0.0772 secs,      11.7811 GFLOP/s
            UV:    28.8358 GFlops,       0.6570 secs,      43.8915 GFLOP/s
            F1:     0.7547 GFlops,       0.1757 secs,       4.2958 GFLOP/s
            F2:     0.4844 GFlops,       0.5742 secs,       0.8435 GFLOP/s
        forces:     0.1352 GFlops,       0.0508 secs,       2.6606 GFLOP/s
--------------------------------------------------------------------------
       Overall:    78.7357 GFlops,       4.2411 secs,      18.5648 GFLOP/s
--------------------------------------------------------------------------

Total wall time: 0:00:04
