ITEM: TIMESTEP
20
ITEM: NUMBER OF ATOMS
8192
ITEM: BOX BOUNDS pp pp pp
0.0000000000000000e+00 5.1024000000000001e+01
0.0000000000000000e+00 5.1024000000000001e+01
0.0000000000000000e+00 5.1024000000000001e+01
ITEM: ATOMS id type x y z fx fy fz
145 1     0.01324168005490     3.19754090299613     3.22029237668984    -0.32307055181492    -0.18555105244238    -0.28538698520049
2 1     1.62055679985850     1.61229236292954     1.59383088370509    -0.39189425032841    -0.19482664245535    -0.23621750658348
131 1     3.19350053791745     0.01007555377245     3.18716331327160     0.10820957927137    -0.07465479817707    -0.21586871786234
147 1     3.17959399866195     3.17866009187470     3.19502487576819     0.38658293813032     0.12158036582661    -0.37164773968445
4 1     4.81414883642282     1.58283532692864     1.59419385280824    -0.23634964439226     0.40379015997619    -0.02403135017302
149 1     6.35388334853870     3.19164989224387     3.19504996081574     0.56942728343234     0.05955680527672    -0.30230033624704
5 1     6.41788763073548     0.00495761396092     0.03771388250469    -0.62214922025034    -0.02017822711660    -0.64953857523092
6 1     8.02653892598872     1.59486010465684     1.62991587667467    -1.02757608064108     0.15270493075371    -0.43727857159095
151 1     9.59616261556207     3.19584635698202     3.15162747983140    -0.64250175269936     0.02312509732878     0.61545250800441
23 1     9.58145826610903     3.19662375965477     0.03240162017121     0.12188655682955    -0.05361221387024    -0.39024372413715
8 1    11.16712193974031     1.59430735541224     1.62525525743159     0.06209152337921    -0.07458710776693    -0.80421215299596
137 1    12.77233055927973     0.01796728443745     3.17365498047514    -0.41918716193930    -0.31025760717334     0.39616872004983
153 1    12.76365381922664     3.20999207080724     3.20109775033680    -0.02688870998117    -0.46713464542890    -0.16468822130481
9 1    12.73023455659547     0.00342783117869     0.00162013344484     0.20467728400143     0.00664666204579    -0.27904697461931
10 1    14.31781144311311     1.58820696565328     1.57911386549613     0.63121068643885     0.14953427236848     0.11557958680862
155 1    15.94775403650879     3.16417942364370     3.15271188187059    -0.22357380113140     0.26188920250125     0.56801216899583
12 1    17.54827601015645     1.59447885465438     1.61320690851534    -0.26180699196758    -0.28456448948455    -0.58516691227187
157 1    19.13771132911229     3.19772788287631     3.11445644922049     0.12644604395618    -0.45031709333588     1.28398905707817
14 1    20.72444275650633     1.57118824618140     1.60431043967591     0.22489682851157     0.44261958433933    -0.08340287725783
16 1    23.94760389131696     1.57014106538576     1.57534362886117    -0.52895253775804     0.44490585939790     0.54233912524254
4241 1    25.49609916215883     3.18774868326504     3.21602150115687     0.23209645376450     0.05197507742073    -0.27723099284473
143 1    22.33940858054657     0.00763343501649     3.18528825919220    -0.46030283220654     0.14486771999680     0.19340047011099
159 1    22.30902025885466     3.17893313518552     3.21282722525740     0.13692516971233     0.16871261114625    -0.54227137462575
33 1     0.02677534616723     6.35678043643825     0.04015791036799    -0.51814605417403     0.38690107162089    -0.73634279254037
18 1     1.56398200953021     4.80546506332604     1.62362930518168     0.56553866177469    -0.47903462760988    -0.01219808311840
35 1     3.20513011892741     6.31475127594344     0.04783526387532    -0.16050435770708     1.37842119147864    -0.56054632421479
163 1     3.19238254921130     6.35237336384293     3.19737661489311    -0.09646102944657     0.65030530596486     0.03597594132736
20 1     4.76827140499132     4.83855438321183     1.59078642127916     0.29828311523495    -1.25175677042772     0.17496171911060
37 1     6.39072804938239     6.37829618599061     0.02425564945352    -0.17409234642326     0.07852829971597    -0.48874496279572
165 1     6.36237375613830     6.37040206499375     3.18064335739398     0.46131357143209     0.13988303036326     0.31077965784020
22 1     7.96700863032678     4.80225639239785     1.57897421184302     0.11150277491103    -0.41109025480119     0.40561042993250
39 1     9.58011664467806     6.39429742923391     0.01564778542373     0.00272684214854    -0.18585964726524    -0.37224570519654
167 1     9.57216340007459     6.38760155772912     3.22356574484653    -0.13769280837664    -0.21812786054507    -0.44850422421535
24 1    11.17242722983731     4.77836151518724     1.60552192848593    -0.13301611455168     0.15738559965054    -0.19573636236782
41 1    12.76336905864863     6.34511714035790     0.00830395751238    -0.11096963185930     0.57168707168471    -0.06927050752937
169 1    12.75069254940749     6.33248582167491     3.22866133304722    -0.06569040392486     0.80168296314720    -0.58216972642779
26 1    14.32952559799167     4.79644278252163     1.57616595824681     0.38398617112775    -0.23050884044046     0.30583128831822
43 1    15.95592207884287     6.37869523028427     0.05024582155017    -0.15576366488261     0.08351722830502    -0.87862609755862
171 1    15.94977420156908     6.39118033164928     3.19117527128699    -0.10059930887363    -0.47622146898042     0.08374574335768
28 1    17.53604031263880     4.75319303088050     1.61815612170575    -0.12774416509404     0.61732056079256    -0.76791569954235
173 1    19.11888484951713     6.35863618901442     3.16004782159148     0.31410095196287     0.42445344265618     0.47742068224185
30 1    20.72923158955124     4.79721114593925     1.60983482040643     0.21661099050040    -0.23502699398488    -0.40293470283315
32 1    23.90432761604067     4.77144738517349     1.57943820534537     0.25127651514334     0.14219420559793     0.39558659552567
47 1    22.34199650461759     6.38026376794765     0.02265731509633    -0.09839752952231    -0.13774051837035    -0.43367107899978
175 1    22.30661853196622     6.41658183951701     3.19418811042063     0.24245989706114    -0.88734651851866    -0.04493569085934
177 1     0.01923548274861     9.55966053670323     3.18135318938892    -0.23139583367754     0.01089548438617     0.22073114491026
34 1     1.58848208133924     7.99368353954991     1.61071624032610     0.37715949626070    -0.42865996383581    -0.18409621075514
51 1     3.17166987805886     9.56391201412364     0.02388264442043     0.42617812512127    -0.16262868273090    -0.22256356565277
179 1     3.20805829229991     9.59753843250173     3.20968787460528    -0.26467403766077    -0.67196458257911    -0.27730783844557
36 1     4.79800497898735     7.99251008285618     1.61905584798885    -0.34059241022777    -0.20864079700860    -0.41584443046009
53 1     6.38199187029529     9.59624767077781     0.04585705674233    -0.40198171551482    -0.85082248168623    -1.02390079108129
181 1     6.38429479036494     9.56344683851007     3.14835033507600     0.03633574428691     0.01767789627583     0.83290112808682
38 1     8.00660286473825     7.93958423551141     1.59285200975349    -0.57381336739888     0.42675699465192     0.07659127164510
55 1     9.53603496849857     9.61584605850982     0.00209973849291     0.68503394662709    -1.12101620586934    -0.22622427382594
183 1     9.54792980304357     9.53934891054923     3.16885451956035     0.52689878265601     0.39551483346009     0.59251726462322
40 1    11.14963169812470     7.95173159621648     1.61531306814017     0.47777728403541     0.22916907781678    -0.24222436306458
185 1    12.81153697987823     9.56590144317973     3.18830373017793    -1.18167126274293    -0.05969855942567     0.22253263980536
42 1    14.35362611223117     7.98665787123167     1.62393370091986    -0.10633100051729    -0.45507387549726    -0.44963772698151
59 1    15.96081893177884     9.56169406451833     0.02288472099806    -0.38168200811549     0.06883413083296    -0.38033931343896
187 1    15.96628681687482     9.54213900300585     3.21273303881044     0.05170571992224     0.37005396610312    -0.32238357376802
44 1    17.55231040061952     7.96724869566667     1.58875638425973     0.05671607198499     0.00971406471291     0.23396144629623
61 1    19.12124833886978     9.55794373408731     0.02293062842446     0.17329645314193     0.41584870613049    -0.37426561419387
189 1    19.16348461394397     9.60720833345941     3.22142860233071    -0.21767546210861    -0.77991996201394    -0.48402572866731
46 1    20.74825787870057     7.97161909836404     1.55175473334365    -0.39206219622149     0.19557211416962     0.76066223052717
48 1    23.92112596204227     7.97982441864859     1.59424483406795    -0.04983845822614    -0.15029240939586    -0.20334232777552
4145 1    25.48450259955824     9.57209396025877     0.00737789220893     0.28696316149992    -0.19749902478807     0.03826852722993
4273 1    25.48336788210737     9.57276655516825     3.21612342650557     0.42291561549829     0.00782802761855    -0.47986932421004
191 1    22.33060697504765     9.52908628074484     3.17801705291996    -0.39512386097246     0.88899745682152     0.05925288754975
193 1     0.00889659853520    12.72090115634790     3.16128366349280    -0.44612556210491     0.73175403627824     0.43051515033662
50 1     1.57632047162799    11.13389027557037     1.60273999427418     0.27544520728315     0.51728734597244    -0.42333226655166
66 1     1.58590798289748    14.34462280727811     1.59088440430125     0.20849652386725    -0.12295515405848     0.14156192188525
67 1     3.18101861562405    12.78107540089534     0.02167072323030    -0.07343207642281    -0.51567867118406    -0.21041418889280
195 1     3.17112878061482    12.76013087735372     3.19866202758555     0.33200174588860     0.08359788745570    -0.24515765060562
52 1     4.77206244054162    11.16879815326448     1.58681811806034     0.13470384922888     0.11653950321907     0.19697164071544
68 1     4.81959369305071    14.35746755513718     1.59089886703225    -0.55045917081296    -0.05453202964627     0.07285699872527
197 1     6.35235483846249    12.74135541652162     3.18705392106585     0.60289501909969     0.25919422164545     0.02527355844798
54 1     7.99935899448208    11.11474595487110     1.56459051680527    -0.55098627760007     1.08902591591409     1.10250664606330
70 1     7.97581034227244    14.40593945984019     1.56653412742917     0.11406054199663    -1.17386310959781     0.58362810048073
71 1     9.57578056741750    12.75420539327969     0.03127507016607    -0.34847931285753     0.38194153803853    -0.67431271815045
199 1     9.54077312156844    12.76324197128550     3.16133211210911     0.18370216405023    -0.06269846896018     0.62651667143743
56 1    11.14436178496912    11.15530975871411     1.59930097267096     0.31027557171364    -0.20048794438021     0.18896668178401
72 1    11.14652286711272    14.34216023173716     1.56396598234309     0.14746203790916     0.29209320007780     0.70108237927026
73 1    12.73723791866368    12.73030267336534     0.01046656881905     0.43452216878484     0.35365228409118    -0.28116298481454
201 1    12.75361346882103    12.79107749010269     3.12828030447195    -0.01394732794264    -0.67303396775021     1.20607949783765
58 1    14.33165235211610    11.12382400183882     1.63341242882525     0.50794461671359     0.61967731644275    -0.74223534745814
74 1    14.34826536765716    14.33231053859423     1.59122306766734    -0.11771095340571     0.39516955863123    -0.11585134497257
75 1    15.94632342636971    12.74963254700909     0.01865224768808    -0.19039844095789     0.00802498837407    -0.44237951637874
203 1    15.97873809342090    12.76361161381574     3.17335913303143    -0.58932809605260    -0.54284827998141     0.37257932387118
60 1    17.55475418783682    11.14992170166263     1.59186885089245    -0.20850724931258     0.15821035978059     0.11276325634491
76 1    17.52546751615555    14.34151021661143     1.63505830130134     0.45307368786792     0.19254628204955    -0.74355838494111
205 1    19.16211195565911    12.77445982477860     3.19302367161246    -0.35736751200872    -0.22936444027652     0.24986477640345
62 1    20.72278414750148    11.19462230287279     1.61708094913761     0.09444432130876    -0.74691243494296    -0.37360670429106
78 1    20.71899210433791    14.30879898231514     1.58787243667955    -0.09337009211887     1.00891768156121     0.11524884996568
80 1    23.90079566556132    14.32970558226854     1.54163540468317     0.36175152129269     0.36199849565199     1.00684723098506
64 1    23.89511462432481    11.15103557932872     1.62344642181073     0.19476957755500     0.10649197497340    -0.38166268657426
4161 1    25.49251108143751    12.72767350447086     0.02314128136730     0.29784870262058     0.28306348460718    -0.32899500765258
207 1    22.35752979005585    12.78633663493180     3.15771200115073    -0.30963816126049    -0.60989990769149     0.73748941244534
209 1     0.05033335798688    15.94718904055597     3.20259903733550    -0.74386193111633    -0.07991087608809    -0.03102146361779
82 1     1.58225470699992    17.51141219224085     1.57582686871054     0.19826145086551     0.56518557867712     0.28766746473940
211 1     3.20786003625442    15.92578531167135     3.15914342042140    -0.09249448038921     0.24228599965983     0.66860259729920
84 1     4.75642371442659    17.55083882341370     1.59884112767882     0.37880827641281    -0.17223196854290    -0.19209953449093
85 1     6.40801338718619    15.95145898441264     0.00584504579743    -0.70444294012458     0.08383797598597    -0.24481154433074
213 1     6.40486874399025    15.97084316809736     3.16926636574435    -0.54694866792102    -0.49198869577862     0.35390104232433
86 1     7.94283179776849    17.51216748431113     1.61388487636769     0.77978328289702     1.06340851208127    -0.50425315577410
87 1     9.57349976010259    15.95400738354921     0.01534177168630    -0.15905826704835     0.30402707752981    -0.35356597811243
215 1     9.59624064559173    15.96371543362277     3.19895558661375    -0.35027338573546    -0.40697617252279    -0.28244290006629
88 1    11.17860381828311    17.55667352882523     1.59189287900580    -0.47359007628467     0.00600973725626     0.15322479692329
89 1    12.71169209907616    15.94748488571595     0.01193945963064     0.86446339650942    -0.11342177804147    -0.21453317220429
217 1    12.76164140696338    15.96389777511009     3.19577432812460    -0.04085606716460    -0.47769641910732    -0.07956724384348
90 1    14.33101736757446    17.56163354017190     1.59395903037690     0.39562227326711    -0.53290226813953    -0.05561836004291
91 1    15.93764873335554    15.93653474722863     0.04134436697965    -0.22495740117547     0.16652849819187    -0.56868747698013
219 1    15.93946948218230    15.90502929581157     3.20196805953589    -0.07670757524941     0.77057436616788     0.12361731037321
92 1    17.53060841514629    17.52031004172964     1.61007259989831    -0.15296040982220     0.14070726255337    -0.20522309185318
221 1    19.12018753003439    15.96156097188029     3.21824629802159     0.31957017349990    -0.60422135813612    -0.43812921163215
94 1    20.70627048844699    17.53174224886215     1.58611958843962     0.41749398088711    -0.36498370010231     0.20252939115736
96 1    23.95067686093723    17.54196914653519     1.60524535304763    -0.49860783029447    -0.30688593532696    -0.11601194625578
4305 1    25.49399453752941    15.92951858646072     3.17442232441909     0.32776393585569     0.12267328126763     0.02262546905414
223 1    22.32385469489169    15.91787822415333     3.17070091686121    -0.08304929629699     0.31936993990754     0.22148927656974
98 1     1.59259178965066    20.72836135674253     1.59334654618822     0.12498411585638    -0.05061942777510    -0.16666335636964
227 1     3.17763323837880    19.14163141676553     3.20182996541615    -0.04970871162908    -0.24658559631790    -0.33201197437858
100 1     4.79885042033661    20.71122066328921     1.59710618754658    -0.37874205605519     0.33266423576773    -0.46602848015392
101 1     6.40534358169883    19.14697708836688     0.00212474689400    -0.21070484321744    -0.06641289741088    -0.04351515757254
229 1     6.32755059918531    19.13308663114695     3.16018941412380     0.87887956535544     0.06966987401235     0.40796063887071
102 1     7.95063564753613    20.74463008281371     1.59229766229019     0.32087885483439    -0.25606764410447    -0.00415974604713
231 1     9.53621098583675    19.17272133829397     3.17808771383379     0.45098117683304    -0.55448976112103     0.12503779736368
104 1    11.18504383361085    20.73938173328483     1.57639535387688    -0.14044737722845    -0.22541568366908     0.42719797028954
233 1    12.79910477150493    19.12749798118828     3.18683434054546    -0.96814525743202     0.28426675064998    -0.03333218180753
106 1    14.37839602717922    20.73550359205127     1.60232813578164    -0.29859937160941    -0.19903181317254    -0.18467120696907
235 1    15.92855955731782    19.13669302811920     3.19970798774764     0.49339596293788    -0.43557992936740    -0.30397410353080
108 1    17.57059320527322    20.68804476119092     1.57408788506251    -0.44917233332482     0.35268640986787     0.33378793852676
237 1    19.12628699317983    19.11988322895120     3.14448631438075     0.03020523365340     0.22206310607763     0.82191346005498
110 1    20.71829814310170    20.71890679735078     1.60699487914993     0.22290653457243     0.01422071768096    -0.09135754673923
112 1    23.92105859219187    20.70990671595787     1.58483359065223    -0.31954200215475     0.49809689999085     0.10818189518184
4321 1    25.51142596004583    19.11724599452328     3.18428091960322     0.15465461944646     0.12069300606651     0.07503045144161
111 1    22.31892760522543    19.11957955079660     0.03455482913638     0.19009816141883     0.40445834889175    -0.55530082937592
239 1    22.30224519892715    19.12839942788015     3.17078738795365     0.23394065852244    -0.22293525737728     0.20794765900165
241 1     0.01776379872839    22.34720356527686     3.15645752154287    -0.24625305335610    -0.25012030099527     0.51578921707049
114 1     1.59698361338529    23.95052039995391     1.57415852677091    -0.10307410997480    -0.71146955706038     0.16284597320605
2179 1     3.21739332418753    25.48175506054561     3.19377678446667    -0.22344964034761     0.46881985474695     0.02682085686699
2051 1     3.17747487050275    25.48803281575476     0.01978278136540     0.08416394313308     0.40376363389286    -0.59760041794699
115 1     3.22489472584486    22.31751454432601     0.00304501326833    -0.59979678340191    -0.09974565023870    -0.15623839017800
243 1     3.18221352803552    22.29953022207388     3.15791209115504     0.10296692697758     0.25114774696110     0.44435500413169
116 1     4.78473064120873    23.90817960473802     1.61452263991540     0.23919321920146     0.17122033978467    -0.44663418071151
245 1     6.33456911696499    22.33745713524110     3.23053799174516     0.86040542237272    -0.47389068124186    -0.82472382256507
118 1     8.01013825288007    23.88469235442207     1.58998775253688    -0.82338774951964     0.54135374555995    -0.04177672869760
2055 1     9.61360930979766    25.49535929230215     0.00739756639813    -0.97431519856996     0.20824100057132    -0.23101661861313
247 1     9.59795517789092    22.31252823967347     3.18640534787038    -0.48783382622582     0.11765820087923     0.15910690423978
120 1    11.13256275445244    23.89251918748108     1.56989409258062     0.87597384600380     0.31333230626787     0.29903479010141
2185 1    12.73828365797740    25.49746353727682     3.19497683539291     0.19199323763924     0.14722074732510     0.03863175759504
121 1    12.77767657662739    22.30048367846858     0.00080738375299    -0.45003006154078     0.48753011910961    -0.12871195516959
249 1    12.77076810928178    22.30863784806265     3.19699834419078    -0.33189972482680     0.31803369375297    -0.03832395491072
122 1    14.34626657950828    23.87772852567374     1.62144821781604     0.03101133837376     0.57636531093616    -0.47076349062808
2187 1    15.92418707643306    25.50803459982010     3.20316741595814     0.27387230596243    -0.07756815017336    -0.09135669148194
123 1    15.97691611545876    22.28483278563283     0.01155318204195    -0.28288840841673     0.66693506634978     0.03752548541790
251 1    15.90927926648742    22.32391844458191     3.20484227696090     0.74561177674262     0.04862759280431     0.06048852962693
124 1    17.55643485942217    23.90161313800632     1.64283221033028    -0.41974241173607     0.39809113731880    -0.58100621842718
125 1    19.14663362650029    22.30923547788645     0.05206460563430    -0.53000428712416    -0.09455053938588    -0.90269889848447
253 1    19.13320573009326    22.35348222650314     3.18831243035235    -0.10358806135491    -0.69972936685333     0.45133149683478
126 1    20.72135925699144    23.90571093477987     1.54027264410525     0.08990033604052     0.41356803984402     1.16163257340411
128 1    23.89415088147201    23.94546895740014     1.61012756077201     0.06843841753600    -0.40951337509842    -0.23476287689070
6145 1    25.48716601326129    25.50610700453293     0.00770161168365     0.43760906203376     0.27236921640313    -0.00059190671320
4209 1    25.48952204031807    22.35532954322948     0.00774380596246     0.22734575054381    -0.40372582167657    -0.17526478325766
2191 1    22.28818413338499    25.50646066132215     3.16725675315381     0.62362174949154    -0.14455143481542     0.38181361448807
127 1    22.26381183780327    22.34826303257970     0.04103296212215     0.97210245580529    -0.65789476246183    -0.64896698375502
255 1    22.32564598703884    22.30776657776764     3.20616869671020    -0.04959513060389     0.17623285538269    -0.28941004708179
257 1     0.03529714153906     0.00743353867772     6.37991627599558    -0.47579196281169    -0.25178548659395    -0.23383789953627
130 1     1.61612004001014     1.59910494682881     4.75814708516663    -0.40437792691744    -0.24224559689566     0.26982422283578
258 1     1.61128029726807     1.60708677232410     7.93730971690323     0.10117992168963    -0.12084515213989     0.52822891978501
275 1     3.19014035001078     3.18575680852174     6.34865607627694     0.09835748645299     0.09067324192817     0.61894256528693
132 1     4.80060305424334     1.58086976500616     4.79172151847844    -0.11233130233458     0.31112535450427    -0.19437308390768
260 1     4.78198435127107     1.63982970954273     7.96528931020029     0.02106001598140    -0.71870482456873    -0.04970749440737
261 1     6.40279558832152     0.02226160620440     6.37530623500133    -0.47719655959135    -0.20923400894586     0.15188667393347
277 1     6.38982627734647     3.19892512609690     6.35897411897380     0.13198150186612     0.17902322455213     0.30728114615620
134 1     7.99269922404332     1.62251295479902     4.79467375497164    -0.27178555181927    -0.29020353830821    -0.32814584342950
262 1     7.97991040121683     1.61664832905918     7.99676095695022    -0.15868307764308    -0.11758811861223    -0.42462325346071
279 1     9.59977599197618     3.17668100930333     6.37017339439810    -0.62573299661632     0.27246143555430     0.21262342106369
136 1    11.13541295780570     1.64348201855030     4.76055099176903     0.47360081743030    -1.07742122005902     0.45013904936706
264 1    11.13251528599972     1.62211810214422     7.98194423503983     0.43267825864654    -0.78546193485252    -0.26014585012740
281 1    12.77943797964359     3.15984304039688     6.41509162550465    -0.27083439316856     0.40460998016804    -0.62386619565425
138 1    14.31857217232486     1.58576514465428     4.76765761179432     0.56598620609133     0.07052817934773     0.34209593170749
266 1    14.38339704238032     1.61844662771922     7.98366058874429    -0.59544344398959    -0.50747960350000    -0.27430366931995
283 1    15.96165242783366     3.21638689258503     6.37159449225089    -0.15850421931665    -0.56697720209315    -0.14230366916214
140 1    17.53420282873799     1.57293393945882     4.76291566712830    -0.06913232319027     0.27230629184506     0.42346989441817
268 1    17.51140506897794     1.58249653763414     7.99721080592240     0.55753012868333     0.15649043830981    -0.62716167259974
285 1    19.11413956207642     3.18819135246904     6.39386311895785     0.26769285651903    -0.10342776978977    -0.50244096809294
142 1    20.73032778853295     1.60481682232797     4.82236158955488    -0.22680682309681    -0.17723432262410    -0.59820891265444
270 1    20.74763870868117     1.57377944284334     7.96259056614613    -0.37759737023209     0.27024664872769     0.11753424507182
272 1    23.91973227557084     1.55989331267225     7.96996945285903     0.07148739272702     0.46455803066939     0.12335987997141
144 1    23.90273739252320     1.58818985149283     4.81210501973931     0.44663645697014     0.04880374184101    -0.59284853012867
4369 1    25.50427934367118     3.19739109942830     6.40145108438745     0.35253405995029    -0.20551742081708    -0.33613900787562
271 1    22.34209092199242     0.00034515284874     6.38610396154824    -0.59769420939294    -0.10158051917515     0.21005739658425
287 1    22.33998631764133     3.21408199482739     6.34977469257301    -0.48957817823728    -0.34137135000225     0.97627087264342
289 1     0.00022809508940     6.34402449830854     6.40975808267398    -0.03238085849596     0.57249969239298    -0.57676856846393
146 1     1.62197167210007     4.76605135349186     4.80063234851343    -0.54352908496416     0.16435162736499    -0.12133718044944
274 1     1.59290320274700     4.81386255669170     7.98826540302375     0.22447598070495    -0.71036331818042    -0.17975365379893
291 1     3.16789195102563     6.34638573684214     6.37529063874167     0.60383318988913     0.58055236313901    -0.12219095198922
148 1     4.79039469423517     4.78633238695826     4.78870472485861     0.14080438823477    -0.11054335165164    -0.04726625947706
276 1     4.78957361451723     4.80899115466443     7.96675048433802    -0.02521646454662    -0.47157209580841     0.06369885650264
293 1     6.39106183495774     6.40556942237870     6.38802401915102    -0.20245332642168    -0.48414463356048    -0.33249441926499
150 1     8.00328920462860     4.79192989078580     4.75185587499463    -0.63059728269361    -0.13476331556974     0.37692816641764
278 1     8.00107958999352     4.80319521679948     7.96338247928228    -0.29815506918690    -0.39957036729200    -0.00761442055985
295 1     9.55555391719633     6.36830826660681     6.38068891586458     0.31293326444822     0.18567265401167     0.10000403336891
152 1    11.11833003723699     4.74976610516037     4.77267440344262     0.80751969970184     0.63668984793740     0.42552378506743
280 1    11.16313566382310     4.76634833955183     7.96975821587405     0.08197180096155     0.51932751894029    -0.01842731457476
297 1    12.78099804769863     6.39065663852043     6.36437035692463    -0.54580547207769    -0.52310517983659     0.39960460380022
154 1    14.32582882867961     4.76427938308041     4.76809680920642     0.55685377776099     0.10660637693925     0.27754505412015
282 1    14.35555837188441     4.76269146144975     7.98174231461742     0.06622793856926     0.55278990175307    -0.20481389652424
299 1    15.93764519522650     6.38681240524779     6.37582018835816     0.11515851236953    -0.24353461857406    -0.00931619638048
156 1    17.53538346804885     4.78019007816858     4.77166602806290    -0.09321646523314    -0.21346397927392     0.05380528657220
284 1    17.53906070762621     4.81271395680547     7.97448245294611    -0.14978127866687    -0.35495273929545     0.08647494695644
301 1    19.11483854590013     6.37682275688103     6.37314082620320     0.41763691089362    -0.03678877174979    -0.00575260287793
158 1    20.71701589253081     4.78229087711207     4.78801287172498    -0.01220545063239     0.04018553298177    -0.07482094849096
286 1    20.71409959256039     4.79402932949036     7.97637331432559     0.42615942135033    -0.16286793948789    -0.05876478800056
288 1    23.96739902670204     4.76964159089913     7.97505046156028    -0.98819233905403     0.10918681822677     0.04073282060602
160 1    23.88346224678588     4.77805620562242     4.79778870549827     0.66113353875115     0.52642374050420    -0.41245974531022
303 1    22.33345763723705     6.39991444461046     6.39120029753943    -0.21489393566706    -0.55325818595945     0.04834114808681
162 1     1.59542834823051     7.95217633008894     4.76748763560919     0.02287582956672     0.37430318919953     0.33795652067325
290 1     1.63231444640578     7.93616054328044     7.93751254917789    -0.54461525324650     0.63876871574682     0.32732687333872
307 1     3.19095137696516     9.56735142025382     6.33747024292399    -0.20388861937478    -0.26484670721224     0.59454351867506
164 1     4.80840021877400     7.95242302462626     4.77692448789809    -0.48948679316607     0.26056642410214     0.05272193287254
292 1     4.80828631747711     7.97010593542525     7.96109509848645    -0.41928800777511     0.23966751631514     0.14301120393131
309 1     6.34436290448674     9.60225662794988     6.37076572615238     0.70233536295064    -0.55111826698228     0.26189648639832
166 1     7.94161221774516     7.98768738864888     4.79221524643288     0.46878364933324    -0.12361345736252    -0.22171186919413
294 1     7.96294806330275     7.97724840784972     7.94487996626495     0.23052956986417     0.33226752257316     0.44625021631137
311 1     9.57064933292623     9.57819340313129     6.37413578338080    -0.03233725848691    -0.16751153755986     0.10015111589573