ITEM: TIMESTEP
20
ITEM: NUMBER OF ATOMS
8192
ITEM: BOX BOUNDS pp pp pp
0.0000000000000000e+00 5.1024000000000001e+01
0.0000000000000000e+00 5.1024000000000001e+01
0.0000000000000000e+00 5.1024000000000001e+01
ITEM: ATOMS id type x y z fx fy fz
145 1     0.01324168005490     3.19754090299613     3.22029237668984    -0.30928637200813    -0.15208206489411    -0.20300311583142
2 1     1.62055679985850     1.61229236292954     1.59383088370509    -0.32415774831970    -0.14720562983890    -0.22206954702655
131 1     3.19350053791745     0.01007555377245     3.18716331327160     0.11589940734699    -0.04732984058070    -0.21348527925074
147 1     3.17959399866195     3.17866009187470     3.19502487576819     0.32715940724144     0.12685327103669    -0.34419590834633
4 1     4.81414883642282     1.58283532692864     1.59419385280824    -0.16216357328699     0.35373335531477    -0.01002404038735
149 1     6.35388334853870     3.19164989224387     3.19504996081574     0.47836729667240     0.00000597040701    -0.24747343162814
5 1     6.41788763073548     0.00495761396092     0.03771388250469    -0.59601004908055    -0.02438831429507    -0.57439130358729
6 1     8.02653892598872     1.59486010465684     1.62991587667467    -0.88227734350713     0.06422965010780    -0.41595725334586
151 1     9.59616261556207     3.19584635698202     3.15162747983140    -0.56848548000514     0.02980046244110     0.59395071539409
23 1     9.58145826610903     3.19662375965477     0.03240162017121     0.09859197627905    -0.01682516222182    -0.37359915046547
8 1    11.16712193974031     1.59430735541224     1.62525525743159     0.07321601791112    -0.07453990096970    -0.76231417206763
137 1    12.77233055927973     0.01796728443745     3.17365498047514    -0.40125353272060    -0.27770203131844     0.35816967302634
153 1    12.76365381922664     3.20999207080724     3.20109775033680    -0.04675653037127    -0.46227772908768    -0.15590198434583
9 1    12.73023455659547     0.00342783117869     0.00162013344484     0.11379822518749     0.00205659487340    -0.22599738202715
10 1    14.31781144311311     1.58820696565328     1.57911386549613     0.56043449387887     0.15290318971733     0.09075366105960
155 1    15.94775403650879     3.16417942364370     3.15271188187059    -0.14811202189589     0.19995548805528     0.49746050251457
12 1    17.54827601015645     1.59447885465438     1.61320690851534    -0.21103550471434    -0.24382562644849    -0.56105190359073
157 1    19.13771132911229     3.19772788287631     3.11445644922049     0.04959071164294    -0.41098158670863     1.11081993695987
14 1    20.72444275650633     1.57118824618140     1.60431043967591     0.19206625803508     0.39816610711607    -0.06499924945849
16 1    23.94760389131696     1.57014106538576     1.57534362886117    -0.48088647556552     0.45923022263675     0.52444961860940
4241 1    25.49609916215883     3.18774868326504     3.21602150115687     0.24907587606632     0.02071191926882    -0.23980871766495
143 1    22.33940858054657     0.00763343501649     3.18528825919220    -0.40144315473436     0.12310521302024     0.14259878675677
159 1    22.30902025885466     3.17893313518552     3.21282722525740     0.12283988462563     0.15074137052886    -0.48819227813980
33 1     0.02677534616723     6.35678043643825     0.04015791036799    -0.42853298903187     0.35403018877266    -0.65206734814557
18 1     1.56398200953021     4.80546506332604     1.62362930518168     0.52633531486523    -0.40601813230186    -0.06556610376232
35 1     3.20513011892741     6.31475127594344     0.04783526387532    -0.20850792999018     1.31450466893658    -0.59610848687082
163 1     3.19238254921130     6.35237336384293     3.19737661489311    -0.13223407847252     0.56381785645970     0.08686543330352
20 1     4.76827140499132     4.83855438321183     1.59078642127916     0.31409585868475    -1.19043539448063     0.17768805620960
37 1     6.39072804938239     6.37829618599061     0.02425564945352    -0.14000640137874     0.08562185813824    -0.42649500032867
165 1     6.36237375613830     6.37040206499375     3.18064335739398     0.40995852451567     0.13934822919325     0.30786102876119
22 1     7.96700863032678     4.80225639239785     1.57897421184302     0.07648446395826    -0.40701428566897     0.32382263667523
39 1     9.58011664467806     6.39429742923391     0.01564778542373     0.01211719660854    -0.16327063564506    -0.31195759979654
167 1     9.57216340007459     6.38760155772912     3.22356574484653    -0.11537185277381    -0.17986402961581    -0.40488350551095
24 1    11.17242722983731     4.77836151518724     1.60552192848593    -0.11415136799538     0.13436210189329    -0.20967918836216
41 1    12.76336905864863     6.34511714035790     0.00830395751238    -0.12730785560377     0.50791565519046    -0.10719080887027
169 1    12.75069254940749     6.33248582167491     3.22866133304722    -0.03308250690754     0.72789826931688    -0.55019590147699
26 1    14.32952559799167     4.79644278252163     1.57616595824681     0.34735686909218    -0.22554401919179     0.24308686957047
43 1    15.95592207884287     6.37869523028427     0.05024582155017    -0.15675647692770     0.09864902585762    -0.83259662484289
171 1    15.94977420156908     6.39118033164928     3.19117527128699    -0.09306960339723    -0.40238525079883     0.11132896678852
28 1    17.53604031263880     4.75319303088050     1.61815612170575    -0.05683730835186     0.54410369269403    -0.65865606015174
173 1    19.11888484951713     6.35863618901442     3.16004782159148     0.28173386229203     0.39215250559909     0.42723000262517
30 1    20.72923158955124     4.79721114593925     1.60983482040643     0.18280174328518    -0.21446680267664    -0.38555917901213
32 1    23.90432761604067     4.77144738517349     1.57943820534537     0.21943436737381     0.14974197396489     0.32435006465992
47 1    22.34199650461759     6.38026376794765     0.02265731509633    -0.06004027851027    -0.10268220298956    -0.39284646947357
175 1    22.30661853196622     6.41658183951701     3.19418811042063     0.24363074874794    -0.81381068173527    -0.05642448670297
177 1     0.01923548274861     9.55966053670323     3.18135318938892    -0.21129652364202     0.01486227982263     0.17901530215792
34 1     1.58848208133924     7.99368353954991     1.61071624032610     0.30857472564904    -0.40898438701369    -0.22587728881825
51 1     3.17166987805886     9.56391201412364     0.02388264442043     0.37210505317813    -0.12803538778648    -0.16791633790078
179 1     3.20805829229991     9.59753843250173     3.20968787460528    -0.23833786980954    -0.60001301843176    -0.29603267620687
36 1     4.79800497898735     7.99251008285618     1.61905584798885    -0.28353735330444    -0.14693997250705    -0.39250934145309
53 1     6.38199187029529     9.59624767077781     0.04585705674233    -0.34737477655432    -0.72697534280461    -0.92034872815273
181 1     6.38429479036494     9.56344683851007     3.14835033507600     0.06028390755362     0.03253582651663     0.78273590801888
38 1     8.00660286473825     7.93958423551141     1.59285200975349    -0.52812476909345     0.39625381537312     0.09974223408799
55 1     9.53603496849857     9.61584605850982     0.00209973849291     0.71340581573216    -1.06094820430752    -0.19313270111441
183 1     9.54792980304357     9.53934891054923     3.16885451956035     0.49006650499652     0.36507755230576     0.49559119667118
40 1    11.14963169812470     7.95173159621648     1.61531306814017     0.40434493296881     0.24796964070492    -0.18826175196670
185 1    12.81153697987823     9.56590144317973     3.18830373017793    -1.03296331005028    -0.03386170471749     0.14285495815954
42 1    14.35362611223117     7.98665787123167     1.62393370091986    -0.04193236932599    -0.43484503271598    -0.40899833167056
59 1    15.96081893177884     9.56169406451833     0.02288472099806    -0.34723311761737     0.08433922407873    -0.33641056807230
187 1    15.96628681687482     9.54213900300585     3.21273303881044     0.05417377158749     0.33633440276177    -0.29510987304533
44 1    17.55231040061952     7.96724869566667     1.58875638425973     0.04927357333839    -0.00153715008685     0.19595159340446
61 1    19.12124833886978     9.55794373408731     0.02293062842446     0.16191765088927     0.37541626335724    -0.33291731542567
189 1    19.16348461394397     9.60720833345941     3.22142860233071    -0.21663678435886    -0.68665349127364    -0.52557973081513
46 1    20.74825787870057     7.97161909836404     1.55175473334365    -0.38775893099022     0.17693490305858     0.71643268856501
48 1    23.92112596204227     7.97982441864859     1.59424483406795    -0.06584416820949    -0.15017397630210    -0.16466311001221
4145 1    25.48450259955824     9.57209396025877     0.00737789220893     0.24636108083039    -0.18776527218346     0.03306453023068
4273 1    25.48336788210737     9.57276655516825     3.21612342650557     0.38175029538727     0.08217036202854    -0.50626327373875
191 1    22.33060697504765     9.52908628074484     3.17801705291996    -0.32726987741626     0.81136501596391     0.03044258580928
193 1     0.00889659853520    12.72090115634790     3.16128366349280    -0.41957174238835     0.68673136808866     0.39640357617304
50 1     1.57632047162799    11.13389027557037     1.60273999427418     0.26051015268935     0.47447181607291    -0.38952363710616
66 1     1.58590798289748    14.34462280727811     1.59088440430125     0.18288362438948    -0.12619331830680     0.16812134663431
67 1     3.18101861562405    12.78107540089534     0.02167072323030    -0.03432192695762    -0.41554775265424    -0.19988698350885
195 1     3.17112878061482    12.76013087735372     3.19866202758555     0.31045822631284     0.12836943771370    -0.26852075858614
52 1     4.77206244054162    11.16879815326448     1.58681811806034     0.11348415240130     0.09310936220375     0.21470964275787
68 1     4.81959369305071    14.35746755513718     1.59089886703225    -0.51352710139481    -0.07126982990754     0.10990379153842
197 1     6.35235483846249    12.74135541652162     3.18705392106585     0.53764986999146     0.23138482290888    -0.01029824475479
54 1     7.99935899448208    11.11474595487110     1.56459051680527    -0.57994678325459     0.96869403778484     1.02693573486996
70 1     7.97581034227244    14.40593945984019     1.56653412742917     0.07538627233127    -1.11321491510313     0.57909045570073
71 1     9.57578056741750    12.75420539327969     0.03127507016607    -0.34624847638717     0.35489719267337    -0.64374391047470
199 1     9.54077312156844    12.76324197128550     3.16133211210911     0.16848490813308    -0.02819833410393     0.54122582487099
56 1    11.14436178496912    11.15530975871411     1.59930097267096     0.27426429297602    -0.15976634686682     0.18020432962874
72 1    11.14652286711272    14.34216023173716     1.56396598234309     0.17147558011307     0.26048406008497     0.65838429570459
73 1    12.73723791866368    12.73030267336534     0.01046656881905     0.42742615462330     0.32627799093352    -0.28012293687041
201 1    12.75361346882103    12.79107749010269     3.12828030447195     0.00269392929850    -0.63657032534622     1.15357359196758
58 1    14.33165235211610    11.12382400183882     1.63341242882525     0.42495688811409     0.56587775256226    -0.64885113733213
74 1    14.34826536765716    14.33231053859423     1.59122306766734    -0.08981596750949     0.30960686523590    -0.07913075703680
75 1    15.94632342636971    12.74963254700909     0.01865224768808    -0.20316573893614    -0.00605673238165    -0.39944726066200
203 1    15.97873809342090    12.76361161381574     3.17335913303143    -0.44926826831740    -0.43634431013570     0.33706671267325
60 1    17.55475418783682    11.14992170166263     1.59186885089245    -0.22974922979477     0.11469889062404     0.05921511567595
76 1    17.52546751615555    14.34151021661143     1.63505830130134     0.32690745213386     0.10331863402463    -0.62457808646529
205 1    19.16211195565911    12.77445982477860     3.19302367161246    -0.28272092926979    -0.16145883912715     0.19350585310345
62 1    20.72278414750148    11.19462230287279     1.61708094913761     0.08020262804261    -0.65811810848639    -0.29509207067325
78 1    20.71899210433791    14.30879898231514     1.58787243667955    -0.09231786523756     0.92316179745534     0.10694378160610
80 1    23.90079566556132    14.32970558226854     1.54163540468317     0.29624037922402     0.33934777472927     0.97155536843215
64 1    23.89511462432481    11.15103557932872     1.62344642181073     0.18543836041660     0.07550508184690    -0.34393074389994
4161 1    25.49251108143751    12.72767350447086     0.02314128136730     0.21924686779596     0.27291931460219    -0.26500045195620
207 1    22.35752979005585    12.78633663493180     3.15771200115073    -0.33282019299787    -0.62775102632580     0.65622737545927
209 1     0.05033335798688    15.94718904055597     3.20259903733550    -0.65487125003459    -0.05484645686358    -0.00643412896964
82 1     1.58225470699992    17.51141219224085     1.57582686871054     0.21252174691556     0.49478409058960     0.27556064034539
211 1     3.20786003625442    15.92578531167135     3.15914342042140    -0.04110171199974     0.22612370417833     0.62387689350508
84 1     4.75642371442659    17.55083882341370     1.59884112767882     0.29983145308360    -0.17907783779874    -0.14914079635604
85 1     6.40801338718619    15.95145898441264     0.00584504579743    -0.61282235250853     0.04484989794950    -0.22052382379585
213 1     6.40486874399025    15.97084316809736     3.16926636574435    -0.43061700969911    -0.41957833841968     0.29055368591482
86 1     7.94283179776849    17.51216748431113     1.61388487636769     0.66109354196464     0.95406323277016    -0.42972792429398
87 1     9.57349976010259    15.95400738354921     0.01534177168630    -0.14503471913168     0.24307440187841    -0.32825613473098
215 1     9.59624064559173    15.96371543362277     3.19895558661375    -0.29784373465784    -0.25898361259234    -0.20852829638403
88 1    11.17860381828311    17.55667352882523     1.59189287900580    -0.42121454916463    -0.01501570113338     0.08803047637721
89 1    12.71169209907616    15.94748488571595     0.01193945963064     0.76651003712624    -0.10928672408762    -0.20915083588726
217 1    12.76164140696338    15.96389777511009     3.19577432812460    -0.05176873536621    -0.37398120538375    -0.08503538700511
90 1    14.33101736757446    17.56163354017190     1.59395903037690     0.40125179411329    -0.47853431091158    -0.06575159657010
91 1    15.93764873335554    15.93653474722863     0.04134436697965    -0.23266396121848     0.17993837159824    -0.51357240899668
219 1    15.93946948218230    15.90502929581157     3.20196805953589    -0.07535141973334     0.67709087316703     0.12819263676307
92 1    17.53060841514629    17.52031004172964     1.61007259989831    -0.14830253388126     0.10583074885698    -0.22117163102908
221 1    19.12018753003439    15.96156097188029     3.21824629802159     0.27327382663894    -0.52194710283462    -0.38001092165411
94 1    20.70627048844699    17.53174224886215     1.58611958843962     0.38431583054471    -0.31133182268151     0.16055758396082
96 1    23.95067686093723    17.54196914653519     1.60524535304763    -0.47040301611061    -0.29464316375750    -0.10555645087609
4305 1    25.49399453752941    15.92951858646072     3.17442232441909     0.30120790690473     0.13395364177602     0.06434549963004
223 1    22.32385469489169    15.91787822415333     3.17070091686121    -0.12264026065944     0.29435324747486     0.20563188049839
98 1     1.59259178965066    20.72836135674253     1.59334654618822     0.11325569938489    -0.03671568484085    -0.10954221089450
227 1     3.17763323837880    19.14163141676553     3.20182996541615    -0.09295176641298    -0.23351342155769    -0.30267010738105
100 1     4.79885042033661    20.71122066328921     1.59710618754658    -0.33833144241391     0.28947145292733    -0.37011996517639
101 1     6.40534358169883    19.14697708836688     0.00212474689400    -0.17292336080550    -0.04006638869322    -0.05579390392550
229 1     6.32755059918531    19.13308663114695     3.16018941412380     0.77054267229448     0.09745649179843     0.36590255137404
102 1     7.95063564753613    20.74463008281371     1.59229766229019     0.30203357791317    -0.27671610920510    -0.01537779061963
231 1     9.53621098583675    19.17272133829397     3.17808771383379     0.41089827204607    -0.46300203789794     0.13472656224600
104 1    11.18504383361085    20.73938173328483     1.57639535387688    -0.11520971434340    -0.19946486646456     0.36892679133889
233 1    12.79910477150493    19.12749798118828     3.18683434054546    -0.88294555660445     0.25570616280400    -0.03045236193028
106 1    14.37839602717922    20.73550359205127     1.60232813578164    -0.25888351556772    -0.19161209695968    -0.17713426304644
235 1    15.92855955731782    19.13669302811920     3.19970798774764     0.44966844725844    -0.39013886389205    -0.24597488211325
108 1    17.57059320527322    20.68804476119092     1.57408788506251    -0.44500735954295     0.35655510415557     0.28943737467275
237 1    19.12628699317983    19.11988322895120     3.14448631438075     0.02570172755012     0.22852258325779     0.73786105321637
110 1    20.71829814310170    20.71890679735078     1.60699487914993     0.23710640583185     0.01388975834468    -0.09794837053411
112 1    23.92105859219187    20.70990671595787     1.58483359065223    -0.30848831027596     0.43190488699328     0.10670584406645
4321 1    25.51142596004583    19.11724599452328     3.18428091960322     0.12302404838968     0.11934933782275     0.09618548427921
111 1    22.31892760522543    19.11957955079660     0.03455482913638     0.18931526167855     0.36441699390220    -0.52847321327415
239 1    22.30224519892715    19.12839942788015     3.17078738795365     0.21509773634625    -0.20277556156248     0.20739622592175
241 1     0.01776379872839    22.34720356527686     3.15645752154287    -0.23088616177258    -0.26091407457285     0.46310472599392
114 1     1.59698361338529    23.95052039995391     1.57415852677091    -0.09882570252236    -0.61987604341403     0.13131989300634
2179 1     3.21739332418753    25.48175506054561     3.19377678446667    -0.17922517052413     0.40626757477564     0.00572699952322
2051 1     3.17747487050275    25.48803281575476     0.01978278136540     0.03533391062045     0.34872886280201    -0.46886409844789
115 1     3.22489472584486    22.31751454432601     0.00304501326833    -0.55125291688717    -0.08295685285335    -0.17416640843938
243 1     3.18221352803552    22.29953022207388     3.15791209115504     0.07041033224617     0.20906340508047     0.41116035789167
116 1     4.78473064120873    23.90817960473802     1.61452263991540     0.18643295618795     0.15042565410152    -0.40460559819161
245 1     6.33456911696499    22.33745713524110     3.23053799174516     0.73147913683453    -0.35292322305666    -0.69470751349871
118 1     8.01013825288007    23.88469235442207     1.58998775253688    -0.77775379019936     0.52413316222541    -0.04920523921583
2055 1     9.61360930979766    25.49535929230215     0.00739756639813    -0.90482593118281     0.19406302856973    -0.24140339877924
247 1     9.59795517789092    22.31252823967347     3.18640534787038    -0.47477340714757     0.14847632140559     0.12229178728174
120 1    11.13256275445244    23.89251918748108     1.56989409258062     0.77273848204689     0.28614458521691     0.29519293532413
2185 1    12.73828365797740    25.49746353727682     3.19497683539291     0.18169328891798     0.16672852141990     0.00936992720051
121 1    12.77767657662739    22.30048367846858     0.00080738375299    -0.37829352196174     0.46562311602336    -0.10413462108926
249 1    12.77076810928178    22.30863784806265     3.19699834419078    -0.31019167517193     0.23637568187705    -0.09682621510039
122 1    14.34626657950828    23.87772852567374     1.62144821781604    -0.02382557060827     0.54537585208873    -0.41323978816714
2187 1    15.92418707643306    25.50803459982010     3.20316741595814     0.26969155644031    -0.08595219735302    -0.07682989568462
123 1    15.97691611545876    22.28483278563283     0.01155318204195    -0.28921476472062     0.59887442560722     0.00129165796075
251 1    15.90927926648742    22.32391844458191     3.20484227696090     0.72747156707232    -0.00979078774832     0.00157792172196
124 1    17.55643485942217    23.90161313800632     1.64283221033028    -0.35198775732256     0.32392037196182    -0.55489686242448
125 1    19.14663362650029    22.30923547788645     0.05206460563430    -0.44771145941470    -0.02274690363599    -0.76095698448495
253 1    19.13320573009326    22.35348222650314     3.18831243035235    -0.11741637755355    -0.54535326803482     0.40232715813894
126 1    20.72135925699144    23.90571093477987     1.54027264410525     0.01030293033478     0.31279714544208     1.03321683007752
128 1    23.89415088147201    23.94546895740014     1.61012756077201     0.08925279932022    -0.37534080018781    -0.23175179121197
6145 1    25.48716601326129    25.50610700453293     0.00770161168365     0.37286889860759     0.27378284078030     0.01105912737836
4209 1    25.48952204031807    22.35532954322948     0.00774380596246     0.19751685166128    -0.37239227869517    -0.22833708758812
2191 1    22.28818413338499    25.50646066132215     3.16725675315381     0.60126784117564    -0.17914813951792     0.32965361369379
127 1    22.26381183780327    22.34826303257970     0.04103296212215     0.89845596484577    -0.60320232481084    -0.63412027700274
255 1    22.32564598703884    22.30776657776764     3.20616869671020    -0.04520884450536     0.17142549703226    -0.23429091460688
257 1     0.03529714153906     0.00743353867772     6.37991627599558    -0.48512352997992    -0.19675884009551    -0.23435851578475
130 1     1.61612004001014     1.59910494682881     4.75814708516663    -0.34150672109811    -0.19483618004347     0.27811588418665
258 1     1.61128029726807     1.60708677232410     7.93730971690323     0.07404067124338    -0.12511010137600     0.44898723139462
275 1     3.19014035001078     3.18575680852174     6.34865607627694     0.08070486323562     0.03519374003281     0.57174249579122
132 1     4.80060305424334     1.58086976500616     4.79172151847844    -0.07464101816072     0.31852326637077    -0.18670043262538
260 1     4.78198435127107     1.63982970954273     7.96528931020029     0.00964031403314    -0.62110120612738    -0.02895772815121
261 1     6.40279558832152     0.02226160620440     6.37530623500133    -0.42908685754154    -0.23278871104489     0.10145700046333
277 1     6.38982627734647     3.19892512609690     6.35897411897380     0.09127579268879     0.14115880348087     0.26852309845989
134 1     7.99269922404332     1.62251295479902     4.79467375497164    -0.30640460872153    -0.26709262386980    -0.20184629395727
262 1     7.97991040121683     1.61664832905918     7.99676095695022    -0.19905901135412    -0.11574322243704    -0.35920259481953
279 1     9.59977599197618     3.17668100930333     6.37017339439810    -0.56624151187330     0.24170288666204     0.19747647100788
136 1    11.13541295780570     1.64348201855030     4.76055099176903     0.46452294556700    -1.01786786055476     0.40659242100227
264 1    11.13251528599972     1.62211810214422     7.98194423503983     0.47959823468925    -0.70073498792107    -0.25555766285947
281 1    12.77943797964359     3.15984304039688     6.41509162550465    -0.23392931552974     0.38530895353555    -0.56599706662761
138 1    14.31857217232486     1.58576514465428     4.76765761179432     0.49681620221886     0.07943427854429     0.32984301810552
266 1    14.38339704238032     1.61844662771922     7.98366058874429    -0.55793461174311    -0.49077043591835    -0.28620511711918
283 1    15.96165242783366     3.21638689258503     6.37159449225089    -0.18070058779890    -0.49447438500173    -0.12332504073421
140 1    17.53420282873799     1.57293393945882     4.76291566712830    -0.04876891548106     0.22297185059675     0.37913460096647
268 1    17.51140506897794     1.58249653763414     7.99721080592240     0.52532130451325     0.15407673358125    -0.53860625326007
285 1    19.11413956207642     3.18819135246904     6.39386311895785     0.27198667684936    -0.07673881011147    -0.51731099667201
142 1    20.73032778853295     1.60481682232797     4.82236158955488    -0.24644259181244    -0.12983692950517    -0.55199979509661
270 1    20.74763870868117     1.57377944284334     7.96259056614613    -0.33486938035188     0.22071459583070     0.16454311228114
272 1    23.91973227557084     1.55989331267225     7.96996945285903     0.08631881386982     0.40288782439706     0.08525788208650
144 1    23.90273739252320     1.58818985149283     4.81210501973931     0.40780288106585     0.04511806517656    -0.56389842865389
4369 1    25.50427934367118     3.19739109942830     6.40145108438745     0.35315747212113    -0.18967184310968    -0.28218018055753
271 1    22.34209092199242     0.00034515284874     6.38610396154824    -0.55729738062273    -0.06225384614652     0.18964354015551
287 1    22.33998631764133     3.21408199482739     6.34977469257301    -0.37040281397151    -0.26446078803018     0.80002182220740
289 1     0.00022809508940     6.34402449830854     6.40975808267398    -0.06305318223640     0.50775562016499    -0.48812290290538
146 1     1.62197167210007     4.76605135349186     4.80063234851343    -0.48214014876954     0.15641844697935    -0.17738379390099
274 1     1.59290320274700     4.81386255669170     7.98826540302375     0.20965005568416    -0.65442122001789    -0.19516732952222
291 1     3.16789195102563     6.34638573684214     6.37529063874167     0.55518732216363     0.48603519443091    -0.08718653460307
148 1     4.79039469423517     4.78633238695826     4.78870472485861     0.13844736048896    -0.12582537605921    -0.07845703873603
276 1     4.78957361451723     4.80899115466443     7.96675048433802     0.00328182960773    -0.37678112497256     0.08042529232154
293 1     6.39106183495774     6.40556942237870     6.38802401915102    -0.19674258841015    -0.40237496134179    -0.31096271766610
150 1     8.00328920462860     4.79192989078580     4.75185587499463    -0.60514454097481    -0.05814988800283     0.35162313512069
278 1     8.00107958999352     4.80319521679948     7.96338247928228    -0.32523924350476    -0.33809927463449    -0.00819644918114
295 1     9.55555391719633     6.36830826660681     6.38068891586458     0.29218818861061     0.16146610836821     0.12384151132750
152 1    11.11833003723699     4.74976610516037     4.77267440344262     0.80568775728924     0.63336665309376     0.39593448673951
280 1    11.16313566382310     4.76634833955183     7.96975821587405     0.09520676841026     0.47658158789658    -0.05792741115859
297 1    12.78099804769863     6.39065663852043     6.36437035692463    -0.49787606026208    -0.43144641413824     0.34974777275232
154 1    14.32582882867961     4.76427938308041     4.76809680920642     0.47015684749012     0.10196098174263     0.28550995525575
282 1    14.35555837188441     4.76269146144975     7.98174231461742     0.04398471234304     0.47844661293058    -0.21821672070974
299 1    15.93764519522650     6.38681240524779     6.37582018835816     0.13648565818309    -0.17089477790508     0.02294475488858
156 1    17.53538346804885     4.78019007816858     4.77166602806290    -0.10205325380136    -0.16813436226787     0.10787102478766
284 1    17.53906070762621     4.81271395680547     7.97448245294611    -0.13150672027514    -0.34288618988275     0.06424639264025
301 1    19.11483854590013     6.37682275688103     6.37314082620320     0.37530840879485    -0.03877933651583    -0.02234186537664
158 1    20.71701589253081     4.78229087711207     4.78801287172498    -0.00175484378743     0.00876955839311    -0.05038195546457
286 1    20.71409959256039     4.79402932949036     7.97637331432559     0.35772461089785    -0.17552252613512    -0.03734132953617
288 1    23.96739902670204     4.76964159089913     7.97505046156028    -0.90285288417192     0.12803517852075     0.06599411113496
160 1    23.88346224678588     4.77805620562242     4.79778870549827     0.54247523812150     0.38535619481142    -0.33466135610861
303 1    22.33345763723705     6.39991444461046     6.39120029753943    -0.18572712382615    -0.47592354033764     0.05453554112259
162 1     1.59542834823051     7.95217633008894     4.76748763560919     0.03721050695773     0.34601113225841     0.26634085042281
290 1     1.63231444640578     7.93616054328044     7.93751254917789    -0.48836091736783     0.60674223995070     0.34306968083880
307 1     3.19095137696516     9.56735142025382     6.33747024292399    -0.19951831888208    -0.23933162825335     0.55513292784217
164 1     4.80840021877400     7.95242302462626     4.77692448789809    -0.43131741130644     0.23632850113009     0.05576764791464
292 1     4.80828631747711     7.97010593542525     7.96109509848645    -0.39231133628805     0.17834786547850     0.14364312992147
309 1     6.34436290448674     9.60225662794988     6.37076572615238     0.60236446045513    -0.53332345314339     0.19142299576383
166 1     7.94161221774516     7.98768738864888     4.79221524643288     0.44978490826209    -0.10631155662497    -0.24926456623356
294 1     7.96294806330275     7.97724840784972     7.94487996626495     0.25891113718653     0.26431330377616     0.40354576578469
311 1     9.57064933292623     9.57819340313129     6.37413578338080     0.00258038802593    -0.16993056795972     0.07157552979890